<?xml version="1.0"?>
<VTKFile type="PolyData" version="0.1" byte_order="LittleEndian">
   <PolyData>
 <Piece NumberOfPoints="2295" NumberOfLines="193" NumberOfVerts="0" NumberOfStrips="0" NumberOfPolys="0">
    <Points>
       <DataArray type="Float32" Name="Position" NumberOfComponents="3" format="ascii">
2.112	-1.723	-1.512
2.284	-1.551	-1.684
2.423	-1.404	-1.831
2.837	-1.073	-2.185
2.970	-0.936	-2.458
3.050	-0.913	-2.703
3.186	-0.910	-3.053
3.376	-0.914	-3.346
3.621	-0.976	-3.564
3.859	-1.083	-3.741
4.239	-1.218	-3.925
4.567	-1.422	-4.027
5.007	-1.591	-4.060
5.357	-1.733	-4.055
2.358	-2.000	-1.708
2.632	-2.000	-1.434
2.803	-1.966	-1.263
3.158	-1.824	-1.062
3.424	-1.659	-0.889
3.648	-1.609	-0.723
3.942	-1.548	-0.460
4.182	-1.517	-0.207
4.260	-1.465	0.115
4.338	-1.468	0.421
4.398	-1.435	0.712
4.389	-1.370	1.123
4.351	-1.210	1.464
4.373	-1.006	1.739
4.343	-0.933	1.814
2.726	-2.100	-1.800
2.726	-2.575	-1.800
2.726	-3.031	-1.800
2.662	-3.400	-1.793
2.629	-3.699	-1.729
2.642	-3.921	-1.652
2.641	-4.290	-1.700
2.651	-4.616	-1.826
2.645	-4.934	-1.906
2.504	-5.368	-1.967
2.402	-5.780	-1.966
2.231	-6.113	-1.898
2.136	-6.378	-1.962
3.143	-2.200	-1.750
3.143	-2.510	-1.750
3.173	-2.757	-1.733
3.224	-3.196	-1.704
3.257	-3.556	-1.627
3.282	-3.846	-1.588
3.301	-4.067	-1.559
3.323	-4.433	-1.534
3.469	-4.719	-1.607
3.792	-5.045	-1.739
4.014	-5.250	-1.765
4.272	-5.582	-1.767
4.569	-5.791	-1.852
4.626	-5.809	-1.857
3.426	-2.552	-1.750
3.426	-2.552	-2.149
3.426	-2.552	-2.392
3.344	-2.640	-2.805
3.277	-2.713	-3.147
3.151	-2.796	-3.615
3.062	-2.861	-3.954
2.889	-3.093	-4.373
2.875	-3.182	-4.678
2.838	-3.341	-5.090
2.870	-3.387	-5.490
2.863	-3.389	-5.553
3.750	-2.802	-1.799
3.404	-2.802	-1.799
3.157	-2.802	-1.799
2.936	-2.841	-1.842
2.403	-2.804	-2.049
2.116	-2.795	-2.088
1.780	-2.891	-2.292
1.485	-3.040	-2.418
1.234	-3.189	-2.586
0.948	-3.437	-2.866
0.802	-3.706	-3.175
0.789	-3.765	-3.207
3.618	-2.900	-1.982
3.350	-2.900	-1.715
3.163	-2.942	-1.562
2.822	-2.903	-1.298
2.545	-2.844	-1.078
2.291	-2.837	-0.949
1.930	-2.796	-0.784
1.599	-2.680	-0.747
1.355	-2.487	-0.623
1.198	-2.221	-0.564
1.100	-1.975	-0.425
3.458	-2.700	-2.292
3.746	-2.700	-2.581
3.881	-2.622	-2.767
4.229	-2.572	-3.271
4.321	-2.585	-3.575
4.403	-2.643	-3.798
4.494	-2.694	-4.153
4.488	-2.599	-4.489
4.502	-2.532	-4.810
4.487	-2.531	-4.889
3.175	-2.700	-2.675
3.175	-3.211	-2.675
3.175	-3.661	-2.675
3.270	-4.020	-2.740
3.330	-4.305	-2.820
3.312	-4.533	-2.845
3.231	-4.882	-2.919
3.187	-4.957	-2.938
2.858	-2.800	-2.992
2.858	-2.302	-2.992
2.837	-1.850	-2.998
0.200	-0.200	0.150
0.450	-0.300	0.050
0.600	-0.200	-0.000
0.650	-0.500	-0.250
0.850	-0.700	-0.450
0.950	-0.900	-0.650
1.150	-1.000	-0.950
1.300	-1.300	-1.100
1.650	-1.500	-1.150
1.950	-1.600	-1.300
2.150	-1.800	-1.550
2.350	-2.000	-1.650
2.600	-2.100	-1.800
2.950	-2.200	-1.800
3.250	-2.300	-1.750
3.450	-2.600	-1.750
3.750	-2.800	-1.800
3.650	-2.900	-1.950
3.500	-2.700	-2.250
3.250	-2.700	-2.600
3.000	-2.800	-2.850
2.800	-2.700	-3.050
2.550	-2.800	-3.250
2.300	-3.100	-3.350
2.000	-3.200	-3.250
1.700	-3.300	-3.100
1.400	-3.300	-2.850
1.112	-3.333	-2.666
0.933	-3.483	-2.681
0.722	-3.843	-2.756
0.577	-4.147	-2.902
0.405	-4.395	-3.013
0.143	-4.670	-3.122
-0.082	-4.817	-3.415
-0.317	-4.871	-3.561
2.265	-1.700	-0.815
1.958	-1.700	-1.122
1.772	-1.705	-1.273
1.277	-1.679	-1.627
0.974	-1.698	-1.706
0.770	-1.689	-1.833
0.501	-1.730	-2.069
0.330	-1.868	-2.342
0.211	-1.942	-2.642
0.099	-2.058	-2.911
-0.141	-2.267	-3.205
-0.297	-2.521	-3.464
-0.575	-2.814	-3.704
-0.838	-3.025	-3.865
2.579	-1.500	-0.900
2.579	-1.500	-0.395
2.704	-1.440	0.035
2.852	-1.247	0.323
2.971	-1.092	0.554
3.292	-0.866	0.692
3.595	-0.681	0.689
4.050	-0.536	0.582
4.326	-0.622	0.482
4.733	-0.769	0.425
5.119	-0.852	0.463
5.455	-0.954	0.511
5.695	-1.026	0.401
2.843	-1.800	-0.707
3.074	-1.800	-0.938
3.220	-1.754	-1.133
3.481	-1.672	-1.479
3.650	-1.719	-1.797
3.822	-1.756	-2.029
3.987	-1.876	-2.378
4.213	-2.000	-2.835
4.232	-2.146	-3.116
4.203	-2.316	-3.540
4.193	-2.548	-3.892
4.218	-2.816	-4.158
4.202	-3.061	-4.312
3.122	-2.145	-0.678
2.892	-2.375	-0.908
2.808	-2.529	-1.077
2.660	-2.800	-1.376
2.569	-3.007	-1.651
2.524	-3.144	-1.893
2.465	-3.281	-2.254
2.328	-3.344	-2.574
2.122	-3.325	-2.840
2.032	-3.315	-3.145
2.026	-3.296	-3.446
1.975	-3.244	-3.859
2.040	-3.116	-4.205
2.072	-3.106	-4.255
3.449	-2.399	-0.600
3.449	-2.399	-0.129
3.369	-2.357	0.319
3.250	-2.248	0.666
3.237	-2.246	0.973
3.190	-2.296	1.196
3.031	-2.311	1.527
2.804	-2.359	1.789
2.528	-2.415	1.961
2.256	-2.543	2.047
1.951	-2.782	2.240
1.803	-2.953	2.540
3.811	-2.400	-0.861
3.539	-2.400	-1.133
3.366	-2.400	-1.305
3.231	-2.404	-1.486
2.896	-2.534	-1.922
2.724	-2.541	-2.146
2.555	-2.660	-2.491
2.534	-2.690	-2.843
2.475	-2.692	-3.173
2.542	-2.640	-3.627
2.868	-2.638	-3.906
2.927	-2.630	-3.939
4.050	-2.556	-0.822
4.395	-2.556	-0.822
4.630	-2.504	-0.878
5.003	-2.330	-1.028
5.308	-2.164	-1.135
5.549	-2.047	-1.244
5.919	-2.017	-1.393
6.239	-2.051	-1.541
6.570	-2.007	-1.585
6.877	-2.015	-1.669
7.084	-2.015	-1.886
4.100	-3.004	-0.648
4.100	-3.237	-1.114
3.987	-3.559	-1.406
3.968	-3.794	-1.697
3.944	-3.975	-1.936
3.891	-4.102	-2.115
3.763	-4.335	-2.367
3.668	-4.527	-2.636
3.540	-4.690	-2.890
4.150	-3.249	-0.374
3.730	-3.249	-0.374
3.488	-3.249	-0.374
3.282	-3.214	-0.452
2.843	-3.072	-0.746
2.649	-2.982	-0.924
2.361	-2.938	-1.196
2.304	-2.943	-1.266
4.150	-3.400	-0.027
4.020	-3.400	-0.027
0.050	-0.200	0.050
-0.050	-0.500	-0.050
0.050	-0.900	-0.150
0.200	-1.100	-0.250
0.300	-1.300	-0.150
0.650	-1.400	-0.250
1.050	-1.400	-0.350
1.350	-1.500	-0.550
1.700	-1.500	-0.650
2.000	-1.600	-0.700
2.300	-1.700	-0.850
2.550	-1.500	-0.900
2.800	-1.800	-0.750
3.000	-2.000	-0.700
3.200	-2.300	-0.600
3.550	-2.400	-0.600
3.800	-2.400	-0.850
4.050	-2.500	-0.900
4.050	-2.800	-0.750
4.100	-3.100	-0.600
4.150	-3.200	-0.350
4.150	-3.400	-0.100
4.100	-3.400	0.350
4.100	-3.600	0.600
4.050	-3.700	0.900
3.950	-3.900	1.150
3.850	-4.000	1.450
3.700	-4.100	1.750
3.519	-4.249	1.913
3.116	-4.358	2.023
2.873	-4.577	2.205
2.657	-4.735	2.391
2.407	-4.927	2.644
2.138	-4.940	2.936
1.803	-4.938	2.996
-1.868	-0.600	-2.868
-1.868	-0.953	-2.868
-1.847	-1.193	-2.924
-1.739	-1.552	-3.147
-1.734	-1.820	-3.392
-1.701	-2.005	-3.610
-1.562	-2.274	-3.878
-1.488	-2.471	-4.164
-1.449	-2.655	-4.440
-1.394	-2.863	-4.677
-1.365	-3.074	-4.894
-2.002	-0.700	-3.252
-2.002	-1.195	-3.252
-1.884	-1.632	-3.228
-1.744	-1.983	-3.213
-1.656	-2.274	-3.227
-1.589	-2.495	-3.221
-1.551	-2.855	-3.265
-1.669	-3.178	-3.281
-1.744	-3.496	-3.310
-1.926	-0.848	-3.574
-2.157	-0.848	-3.805
-2.332	-0.848	-3.980
-2.531	-0.853	-4.095
-3.040	-0.843	-4.367
-3.312	-0.919	-4.442
-3.710	-1.000	-4.450
-3.798	-0.983	-4.435
0.000	-0.200	0.000
0.100	-0.300	-0.300
-0.100	0.000	-0.400
-0.050	0.200	-0.600
-0.150	0.100	-0.900
-0.350	0.000	-1.200
-0.500	0.000	-1.550
-0.800	0.000	-1.800
-1.100	-0.100	-2.050
-1.300	-0.200	-2.250
-1.450	-0.200	-2.600
-1.650	-0.400	-2.700
-1.850	-0.600	-2.850
-1.950	-0.700	-3.150
-2.000	-0.800	-3.550
-1.850	-1.100	-3.700
-1.600	-1.400	-3.650
-1.450	-1.700	-3.850
-1.150	-1.900	-3.950
-0.900	-2.100	-3.800
-0.900	-2.100	-3.400
-0.900	-2.300	-3.150
-0.810	-2.274	-2.862
-0.526	-2.283	-2.553
-0.303	-2.269	-2.263
-0.152	-2.211	-1.991
0.083	-2.098	-1.700
0.246	-1.936	-1.379
0.216	-1.856	-1.060
-2.152	-0.700	1.952
-1.811	-0.700	2.294
-1.571	-0.692	2.680
-1.393	-0.761	3.009
-1.204	-0.800	3.247
-1.110	-0.814	3.329
0.550	0.600	0.550
0.350	0.400	0.550
0.000	0.300	0.650
-0.350	0.100	0.600
-0.550	-0.100	0.800
-0.950	-0.100	0.850
-1.200	0.000	1.000
-1.300	-0.100	1.250
-1.500	-0.300	1.450
-1.750	-0.500	1.650
-2.000	-0.600	1.850
-2.300	-0.800	2.050
-2.650	-0.800	2.250
-2.950	-0.800	2.450
-3.250	-0.800	2.300
-3.450	-0.700	2.000
-3.550	-0.700	1.700
-3.489	-1.093	1.591
-3.491	-1.310	1.467
-3.538	-1.513	1.355
-3.640	-1.902	1.213
-3.674	-2.241	1.056
-3.741	-2.550	0.988
-3.694	-2.945	0.970
-3.462	-3.259	0.911
-3.405	-3.399	0.872
2.770	-0.900	1.970
2.770	-1.150	1.970
2.770	-1.404	1.970
2.695	-1.834	2.086
2.625	-2.171	2.240
2.714	-2.460	2.265
2.782	-2.680	2.284
3.036	-2.945	2.330
3.320	-3.135	2.324
3.651	-3.485	2.340
3.787	-3.752	2.388
3.882	-4.143	2.510
3.947	-4.460	2.713
4.052	-4.749	2.872
4.032	-5.168	2.950
4.012	-5.542	2.970
3.139	-0.978	2.189
3.437	-0.680	2.487
3.725	-0.540	2.803
3.988	-0.520	3.070
4.150	-0.582	3.316
4.312	-0.646	3.595
4.454	-0.743	3.911
4.601	-0.869	4.379
4.686	-0.895	4.679
4.898	-0.861	5.059
4.971	-0.976	5.418
4.932	-1.065	5.763
4.835	-1.424	5.993
4.693	-1.665	6.245
3.298	-1.296	2.352
3.493	-1.296	2.547
3.626	-1.277	2.760
3.861	-1.243	3.140
3.946	-1.312	3.497
4.053	-1.450	3.740
4.138	-1.565	3.914
4.082	-1.808	4.184
4.090	-2.118	4.340
4.174	-2.429	4.356
4.263	-2.876	4.366
4.463	-3.250	4.341
4.629	-3.588	4.324
4.617	-4.025	4.446
4.542	-4.358	4.593
3.498	-1.600	2.102
3.294	-1.600	1.898
3.133	-1.530	1.719
2.622	-1.400	1.372
2.295	-1.433	1.308
2.044	-1.501	1.315
1.677	-1.563	1.296
1.333	-1.597	1.242
1.006	-1.664	1.241
0.712	-1.774	1.280
0.507	-2.139	1.402
0.305	-2.473	1.475
-0.114	-2.658	1.573
-0.476	-2.609	1.662
3.680	-1.341	1.820
3.467	-1.341	1.608
3.290	-1.341	1.431
2.961	-1.424	1.144
2.625	-1.519	1.021
2.356	-1.595	0.923
2.030	-1.696	0.704
1.820	-1.816	0.443
1.522	-1.958	0.073
1.323	-2.022	-0.160
1.087	-2.128	-0.506
1.061	-2.288	-0.861
1.111	-2.393	-1.195
1.131	-2.504	-1.445
3.823	-1.154	1.477
4.004	-1.334	1.296
4.097	-1.510	1.146
4.232	-1.883	0.948
4.289	-2.203	0.774
4.371	-2.547	0.561
4.514	-2.780	0.315
4.866	-2.992	0.013
5.066	-3.054	-0.222
5.260	-3.251	-0.579
5.426	-3.535	-0.831
5.708	-3.711	-0.992
5.941	-3.879	-0.996
3.927	-0.800	1.223
3.927	-0.474	1.223
3.927	-0.226	1.223
3.976	-0.008	1.275
4.153	0.531	1.388
4.242	0.808	1.409
4.362	1.197	1.393
4.499	1.525	1.419
4.689	1.800	1.381
5.005	2.148	1.354
5.304	2.457	1.320
5.667	2.592	1.302
5.950	2.672	1.276
4.050	-0.600	0.898
3.986	-0.273	0.939
3.926	-0.036	0.977
3.894	0.402	0.973
3.805	0.755	0.991
3.751	1.031	1.065
3.697	1.467	1.288
3.747	1.800	1.372
3.689	2.284	1.407
3.530	2.544	1.389
3.272	2.873	1.300
3.118	3.211	1.198
[...]
         <PointData>
           <DataArray type="Float32" Name="plantID" NumberOfComponents="1" format="ascii">
 1.500e+01 1.500e+01 1.500e+01 1.500e+01 1.500e+01 1.500e+01 1.500e+01 1.500e+01 1.500e+01 1.500e+01 1.500e+01 1.500e+01 1.500e+01 1.500e+01 1.500e+01 1.500e+01 1.500e+01 1.500e+01 1.500e+01 1.500e+01 1.500e+01 1.500e+01 1.500e+01 1.500e+01 1.500e+01 1.500e+01 1.500e+01 1.500e+01 1.500e+01 1.500e+01 1.500e+01 1.500e+01 1.500e+01 1.500e+01 1.500e+01 1.500e+01 1.500e+01 1.500e+01 1.500e+01 1.500e+01 1.500e+01 1.500e+01 1.500e+01 1.500e+01 1.500e+01 1.500e+01 1.500e+01 1.500e+01 1.500e+01 1.500e+01 1.500e+01 1.500e+01 1.500e+01 1.500e+01 1.500e+01 1.500e+01 1.500e+01 1.500e+01 1.500e+01 1.500e+01 1.500e+01 1.500e+01 1.500e+01 1.500e+01 1.500e+01 1.500e+01 1.500e+01 1.500e+01 1.500e+01 1.500e+01 1.500e+01 1.500e+01 1.500e+01 1.500e+01 1.500e+01 1.500e+01 1.500e+01 1.500e+01 1.500e+01 1.500e+01 1.500e+01 1.500e+01 1.500e+01 1.500e+01 1.500e+01 1.500e+01 1.500e+01 1.500e+01 1.500e+01 1.500e+01 1.500e+01 1.500e+01 1.500e+01 1.500e+01 1.500e+01 1.500e+01 1.500e+01 1.500e+01 1.500e+01 1.500e+01 1.500e+01 1.500e+01 1.500e+01 1.500e+01 1.500e+01 1.500e+01 1.500e+01 1.500e+01 1.500e+01 1.500e+01 1.500e+01 1.500e+01 1.500e+01 1.500e+01 1.500e+01 1.500e+01 1.500e+01 1.500e+01 1.500e+01 1.500e+01 1.500e+01 1.500e+01 1.500e+01 1.500e+01 1.500e+01 1.500e+01 1.500e+01 1.500e+01 1.500e+01 1.500e+01 1.500e+01 1.500e+01 1.500e+01 1.500e+01 1.500e+01 1.500e+01 1.500e+01 1.500e+01 1.500e+01 1.500e+01 1.500e+01 1.500e+01 1.500e+01 1.500e+01 1.500e+01 1.500e+01 1.500e+01 1.500e+01 1.500e+01 1.500e+01 1.500e+01 1.500e+01 1.500e+01 1.500e+01 1.500e+01 1.500e+01 1.500e+01 1.500e+01 1.500e+01 1.500e+01 1.500e+01 1.500e+01 1.500e+01 1.500e+01 1.500e+01 1.500e+01 1.500e+01 1.500e+01 1.500e+01 1.500e+01 1.500e+01 1.500e+01 1.500e+01 1.500e+01 1.500e+01 1.500e+01 1.500e+01 1.500e+01 1.500e+01 1.500e+01 1.500e+01 1.500e+01 1.500e+01 1.500e+01 1.500e+01 1.500e+01 1.500e+01 1.500e+01 1.500e+01 1.500e+01 1.500e+01 1.500e+01 1.500e+01 1.500e+01 1.500e+01 1.500e+01 1.500e+01 1.500e+01 1.500e+01 1.500e+01 1.500e+01 1.500e+01 1.500e+01 1.500e+01 1.500e+01 1.500e+01 1.500e+01 1.500e+01 1.500e+01 1.500e+01 1.500e+01 1.500e+01 1.500e+01 1.500e+01 1.500e+01 1.500e+01 1.500e+01 1.500e+01 1.500e+01 1.500e+01 1.500e+01 1.500e+01 1.500e+01 1.500e+01 1.500e+01 1.500e+01 1.500e+01 1.500e+01 1.500e+01 1.500e+01 1.500e+01 1.500e+01 1.500e+01 1.500e+01 1.500e+01 1.500e+01 1.500e+01 1.500e+01 1.500e+01 1.500e+01 1.500e+01 1.500e+01 1.500e+01 1.500e+01 1.500e+01 1.500e+01 1.500e+01 1.500e+01 1.500e+01 1.500e+01 1.500e+01 1.500e+01 1.500e+01 1.500e+01 1.500e+01 1.500e+01 1.500e+01 1.500e+01 1.500e+01 1.500e+01 1.500e+01 1.500e+01 1.500e+01 1.500e+01 1.500e+01 1.500e+01 1.500e+01 1.500e+01 1.500e+01 1.500e+01 1.500e+01 1.500e+01 1.500e+01 1.500e+01 1.500e+01 1.500e+01 1.500e+01 1.500e+01 1.500e+01 1.500e+01 1.500e+01 1.500e+01 1.500e+01 1.500e+01 1.500e+01 1.500e+01 1.500e+01 1.500e+01 1.500e+01 1.500e+01 1.500e+01 1.500e+01 1.500e+01 1.500e+01 1.500e+01 1.500e+01 1.500e+01 1.500e+01 1.500e+01 1.500e+01 1.500e+01 1.500e+01 1.500e+01 1.500e+01 1.500e+01 1.500e+01 1.500e+01 1.500e+01 1.500e+01 1.500e+01 1.500e+01 1.500e+01 1.500e+01 1.500e+01 1.500e+01 1.500e+01 1.500e+01 1.500e+01 1.500e+01 1.500e+01 1.500e+01 1.500e+01 1.500e+01 1.500e+01 1.500e+01 1.500e+01 1.500e+01 1.500e+01 1.500e+01 1.500e+01 1.500e+01 1.500e+01 1.500e+01 1.500e+01 1.500e+01 1.500e+01 1.500e+01 1.500e+01 1.500e+01 1.500e+01 1.500e+01 1.500e+01 1.500e+01 1.500e+01 1.500e+01 1.500e+01 1.500e+01 1.500e+01 1.500e+01 1.500e+01 1.500e+01 1.500e+01 1.500e+01 1.500e+01 1.500e+01 1.500e+01 1.500e+01 1.500e+01 1.500e+01 1.500e+01 1.500e+01 1.500e+01 1.500e+01 1.500e+01 1.500e+01 1.500e+01 1.500e+01 1.500e+01 1.500e+01 1.500e+01 1.500e+01 1.500e+01 1.500e+01 1.500e+01 1.500e+01 1.500e+01 1.500e+01 1.500e+01 1.500e+01 1.500e+01 1.500e+01 1.500e+01 1.500e+01 1.500e+01 1.500e+01 1.500e+01 1.500e+01 1.500e+01 1.500e+01 1.500e+01 1.500e+01 1.500e+01 1.500e+01 1.500e+01 1.500e+01 1.500e+01 1.500e+01 1.500e+01 1.500e+01 1.500e+01 1.500e+01 1.500e+01 1.500e+01 1.500e+01 1.500e+01 1.500e+01 1.500e+01 1.500e+01 1.500e+01 1.500e+01 1.500e+01 1.500e+01 1.500e+01 1.500e+01 1.500e+01 1.500e+01 1.500e+01 1.500e+01 1.500e+01 1.500e+01 1.500e+01 1.500e+01 1.500e+01 1.500e+01 1.500e+01 1.500e+01 1.500e+01 1.500e+01 1.500e+01 1.500e+01 1.500e+01 1.500e+01 1.500e+01 1.500e+01 1.500e+01 1.500e+01 1.500e+01 1.500e+01 1.500e+01 1.500e+01 1.500e+01 1.500e+01 1.500e+01 1.500e+01 1.500e+01 1.500e+01 1.500e+01 1.500e+01 1.500e+01 1.500e+01 1.500e+01 1.500e+01 1.500e+01 1.500e+01 1.500e+01 1.500e+01 1.500e+01 1.500e+01 1.500e+01 1.500e+01 1.500e+01 1.500e+01 1.500e+01 1.500e+01 1.500e+01 1.500e+01 1.500e+01 1.500e+01 1.500e+01 1.500e+01 1.500e+01 1.500e+01 1.500e+01 1.500e+01 1.500e+01 1.500e+01 1.500e+01 1.500e+01 1.500e+01 1.500e+01 1.500e+01 1.500e+01 1.500e+01 1.500e+01 1.500e+01 1.500e+01 1.500e+01 1.500e+01 1.500e+01 1.500e+01 1.500e+01 1.500e+01 1.500e+01 1.500e+01 1.500e+01 1.500e+01 1.500e+01 1.500e+01 1.500e+01 1.500e+01 1.500e+01 1.500e+01 1.500e+01 1.500e+01 1.500e+01 1.500e+01 1.500e+01 1.500e+01 1.500e+01 1.500e+01 1.500e+01 1.500e+01 1.500e+01 1.500e+01 1.500e+01 1.500e+01 1.500e+01 1.500e+01 1.500e+01 1.500e+01 1.500e+01 1.500e+01 1.500e+01 1.500e+01 1.500e+01 1.500e+01 1.500e+01 1.500e+01 1.500e+01 1.500e+01 1.500e+01 1.500e+01 1.500e+01 1.500e+01 1.500e+01 1.500e+01 1.500e+01 1.500e+01 1.500e+01 1.500e+01 1.500e+01 1.500e+01 1.500e+01 1.500e+01 1.500e+01 1.500e+01 1.500e+01 1.500e+01 1.500e+01 1.500e+01 1.500e+01 1.500e+01 1.500e+01 1.500e+01 1.500e+01 1.500e+01 1.500e+01 1.500e+01 1.500e+01 1.500e+01 1.500e+01 1.500e+01 1.500e+01 1.500e+01 1.500e+01 1.500e+01 1.500e+01 1.500e+01 1.500e+01 1.500e+01 1.500e+01 1.500e+01 1.500e+01 1.500e+01 1.500e+01 1.500e+01 1.500e+01 1.500e+01 1.500e+01 1.500e+01 1.500e+01 1.500e+01 1.500e+01 1.500e+01 1.500e+01 1.500e+01 1.500e+01 1.500e+01 1.500e+01 1.500e+01 1.500e+01 1.500e+01 1.500e+01 1.500e+01 1.500e+01 1.500e+01 1.500e+01 1.500e+01 1.500e+01 1.500e+01 1.500e+01 1.500e+01 1.500e+01 1.500e+01 1.500e+01 1.500e+01 1.500e+01 1.500e+01 1.500e+01 1.500e+01 1.500e+01 1.500e+01 1.500e+01 1.500e+01 1.500e+01 1.500e+01 1.500e+01 1.500e+01 1.500e+01 1.500e+01 1.500e+01 1.500e+01 1.500e+01 1.500e+01 1.500e+01 1.500e+01 1.500e+01 1.500e+01 1.500e+01 1.500e+01 1.500e+01 1.500e+01 1.500e+01 1.500e+01 1.500e+01 1.500e+01 1.500e+01 1.500e+01 1.500e+01 1.500e+01 1.500e+01 1.500e+01 1.500e+01 1.500e+01 1.500e+01 1.500e+01 1.500e+01 1.500e+01 1.500e+01 1.500e+01 1.500e+01 1.500e+01 1.500e+01 1.500e+01 1.500e+01 1.500e+01 1.500e+01 1.500e+01 1.500e+01 1.500e+01 1.500e+01 1.500e+01 1.500e+01 1.500e+01 1.500e+01 1.500e+01 1.500e+01 1.500e+01 1.500e+01 1.500e+01 1.500e+01 1.500e+01 1.500e+01 1.500e+01 1.500e+01 1.500e+01 1.500e+01 1.500e+01 1.500e+01 1.500e+01 1.500e+01 1.500e+01 1.500e+01 1.500e+01 1.500e+01 1.500e+01 1.500e+01 1.500e+01 1.500e+01 1.500e+01 1.500e+01 1.500e+01 1.500e+01 1.500e+01 1.500e+01 1.500e+01 1.500e+01 1.500e+01 1.500e+01 1.500e+01 1.500e+01 1.500e+01 1.500e+01 1.500e+01 1.500e+01 1.500e+01 1.500e+01 1.500e+01 1.500e+01 1.500e+01 1.500e+01 1.500e+01 1.500e+01 1.500e+01 1.500e+01 1.500e+01 1.500e+01 1.500e+01 1.500e+01 1.500e+01 1.500e+01 1.500e+01 1.500e+01 1.500e+01 1.500e+01 1.500e+01 1.500e+01 1.500e+01 1.500e+01 1.500e+01 1.500e+01 1.500e+01 1.500e+01 1.500e+01 1.500e+01 1.500e+01 1.500e+01 1.500e+01 1.500e+01 1.500e+01 1.500e+01 1.500e+01 1.500e+01 1.500e+01 1.500e+01 1.500e+01 1.500e+01 1.500e+01 1.500e+01 1.500e+01 1.500e+01 1.500e+01 1.500e+01 1.500e+01 1.500e+01 1.500e+01 1.500e+01 1.500e+01 1.500e+01 1.500e+01 1.500e+01 1.500e+01 1.500e+01 1.500e+01 1.500e+01 1.500e+01 1.500e+01 1.500e+01 1.500e+01 1.500e+01 1.500e+01 1.500e+01 1.500e+01 1.500e+01 1.500e+01 1.500e+01 1.500e+01 1.500e+01 1.500e+01 1.500e+01 1.500e+01 1.500e+01 1.500e+01 1.500e+01 1.500e+01 1.500e+01 1.500e+01 1.500e+01 1.500e+01 1.500e+01 1.500e+01 1.500e+01 1.500e+01 1.500e+01 1.500e+01 1.500e+01 1.500e+01 1.500e+01 1.500e+01 1.500e+01 1.500e+01 1.500e+01 1.500e+01 1.500e+01 1.500e+01 1.500e+01 1.500e+01 1.500e+01 1.500e+01 1.500e+01 1.500e+01 1.500e+01 1.500e+01 1.500e+01 1.500e+01 1.500e+01 1.500e+01 1.500e+01 1.500e+01 1.500e+01 1.500e+01 1.500e+01 1.500e+01 1.500e+01 1.500e+01 1.500e+01 1.500e+01 1.500e+01 1.500e+01 1.500e+01 1.500e+01 1.500e+01 1.500e+01 1.500e+01 1.500e+01 1.500e+01 1.500e+01 1.500e+01 1.500e+01 1.500e+01 1.500e+01 1.500e+01 1.500e+01 1.500e+01 1.500e+01 1.500e+01 1.500e+01 1.500e+01 1.500e+01 1.500e+01 1.500e+01 1.500e+01 1.500e+01 1.500e+01 1.500e+01 1.500e+01 1.500e+01 1.500e+01 1.500e+01 1.500e+01 1.500e+01 1.500e+01 1.500e+01 1.500e+01 1.500e+01 1.500e+01 1.500e+01 1.500e+01 1.500e+01 1.500e+01 1.500e+01 1.500e+01 1.500e+01 1.500e+01 1.500e+01 1.500e+01 1.500e+01 1.500e+01 1.500e+01 1.500e+01 1.500e+01 1.500e+01 1.500e+01 1.500e+01 1.500e+01 1.500e+01 1.500e+01 1.500e+01 1.500e+01 1.500e+01 1.500e+01 1.500e+01 1.500e+01 1.500e+01 1.500e+01 1.500e+01 1.500e+01 1.500e+01 1.500e+01 1.500e+01 1.500e+01 1.500e+01 1.500e+01 1.500e+01 1.500e+01 1.500e+01 1.500e+01 1.500e+01 1.500e+01 1.500e+01 1.500e+01 1.500e+01 1.500e+01 1.500e+01 1.500e+01 1.500e+01 1.500e+01 1.500e+01 1.500e+01 1.500e+01 1.500e+01 1.500e+01 1.500e+01 1.500e+01 1.500e+01 1.500e+01 1.500e+01 1.500e+01 1.500e+01 1.500e+01 1.500e+01 1.500e+01 1.500e+01 1.500e+01 1.500e+01 1.500e+01 1.500e+01 1.500e+01 1.500e+01 1.500e+01 1.500e+01 1.500e+01 1.500e+01 1.500e+01 1.500e+01 1.500e+01 1.500e+01 1.500e+01 1.500e+01 1.500e+01 1.500e+01 1.500e+01 1.500e+01 1.500e+01 1.500e+01 1.500e+01 1.500e+01 1.500e+01 1.500e+01 1.500e+01 1.500e+01 1.500e+01 1.500e+01 1.500e+01 1.500e+01 1.500e+01 1.500e+01 1.500e+01 1.500e+01 1.500e+01 1.500e+01 1.500e+01 1.500e+01 1.500e+01 1.500e+01 1.500e+01 1.500e+01 1.500e+01 1.500e+01 1.500e+01 1.500e+01 1.500e+01 1.500e+01 1.500e+01 1.500e+01 1.500e+01 1.500e+01 1.500e+01 1.500e+01 1.500e+01 1.500e+01 1.500e+01 1.500e+01 1.500e+01 1.500e+01 1.500e+01 1.500e+01 1.500e+01 1.500e+01 1.500e+01 1.500e+01 1.500e+01 1.500e+01 1.500e+01 1.500e+01 1.500e+01 1.500e+01 1.500e+01 1.500e+01 1.500e+01 1.500e+01 1.500e+01 1.500e+01 1.500e+01 1.500e+01 1.500e+01 1.500e+01 1.500e+01 1.500e+01 1.500e+01 1.500e+01 1.500e+01 1.500e+01 1.500e+01 1.500e+01 1.500e+01 1.500e+01 1.500e+01 1.500e+01 1.500e+01 1.500e+01 1.500e+01 1.500e+01 1.500e+01 1.500e+01 1.500e+01 1.500e+01 1.500e+01 1.500e+01 1.500e+01 1.500e+01 1.500e+01 1.500e+01 1.500e+01 1.500e+01 1.500e+01 1.500e+01 1.500e+01 1.500e+01 1.500e+01 1.500e+01 1.500e+01 1.500e+01 1.500e+01 1.500e+01 1.500e+01 1.500e+01 1.500e+01 1.500e+01 1.500e+01 1.500e+01 1.500e+01 1.500e+01 1.500e+01 1.500e+01 1.500e+01 1.500e+01 1.500e+01 1.500e+01 1.500e+01 1.500e+01 1.500e+01 1.500e+01 1.500e+01 1.500e+01 1.500e+01 1.500e+01 1.500e+01 1.500e+01 1.500e+01 1.500e+01 1.500e+01 1.500e+01 1.500e+01 1.500e+01 1.500e+01 1.500e+01 1.500e+01 1.500e+01 1.500e+01 1.500e+01 1.500e+01 1.500e+01 1.500e+01 1.500e+01 1.500e+01 1.500e+01 1.500e+01 1.500e+01 1.500e+01 1.500e+01 1.500e+01 1.500e+01 1.500e+01 1.500e+01 1.500e+01 1.500e+01 1.500e+01 1.500e+01 1.500e+01 1.500e+01 1.500e+01 1.500e+01 1.500e+01 1.500e+01 1.500e+01 1.500e+01 1.500e+01 1.500e+01 1.500e+01 1.500e+01 1.500e+01 1.500e+01 1.500e+01 1.500e+01 1.500e+01 1.500e+01 1.500e+01 1.500e+01 1.500e+01 1.500e+01 1.500e+01 1.500e+01 1.500e+01 1.500e+01 1.500e+01 1.500e+01 1.500e+01 1.500e+01 1.500e+01 1.500e+01 1.500e+01 1.500e+01 1.500e+01 1.500e+01 1.500e+01 1.500e+01 1.500e+01 1.500e+01 1.500e+01 1.500e+01 1.500e+01 1.500e+01 1.500e+01 1.500e+01 1.500e+01 1.500e+01 1.500e+01 1.500e+01 1.500e+01 1.500e+01 1.500e+01 1.500e+01 1.500e+01 1.500e+01 1.500e+01 1.500e+01 1.500e+01 1.500e+01 1.500e+01 1.500e+01 1.500e+01 1.500e+01 1.500e+01 1.500e+01 1.500e+01 1.500e+01 1.500e+01 1.500e+01 1.500e+01 1.500e+01 1.500e+01 1.500e+01 1.500e+01 1.500e+01 1.500e+01 1.500e+01 1.500e+01 1.500e+01 1.500e+01 1.500e+01 1.500e+01 1.500e+01 1.500e+01 1.500e+01 1.500e+01 1.500e+01 1.500e+01 1.500e+01 1.500e+01 1.500e+01 1.500e+01 1.500e+01 1.500e+01 1.500e+01 1.500e+01 1.500e+01 1.500e+01 1.500e+01 1.500e+01 1.500e+01 1.500e+01 1.500e+01 1.500e+01 1.500e+01 1.500e+01 1.500e+01 1.500e+01 1.500e+01 1.500e+01 1.500e+01 1.500e+01 1.500e+01 1.500e+01 1.500e+01 1.500e+01 1.500e+01 1.500e+01 1.500e+01 1.500e+01 1.500e+01 1.500e+01 1.500e+01 1.500e+01 1.500e+01 1.500e+01 1.500e+01 1.500e+01 1.500e+01 1.500e+01 1.500e+01 1.500e+01 1.500e+01 1.500e+01 1.500e+01 1.500e+01 1.500e+01 1.500e+01 1.500e+01 1.500e+01 1.500e+01 1.500e+01 1.500e+01 1.500e+01 1.500e+01 1.500e+01 1.500e+01 1.500e+01 1.500e+01 1.500e+01 1.500e+01 1.500e+01 1.500e+01 1.500e+01 1.500e+01 1.500e+01 1.500e+01 1.500e+01 1.500e+01 1.500e+01 1.500e+01 1.500e+01 1.500e+01 1.500e+01 1.500e+01 1.500e+01 1.500e+01 1.500e+01 1.500e+01 1.500e+01 1.500e+01 1.500e+01 1.500e+01 1.500e+01 1.500e+01 1.500e+01 1.500e+01 1.500e+01 1.500e+01 1.500e+01 1.500e+01 1.500e+01 1.500e+01 1.500e+01 1.500e+01 1.500e+01 1.500e+01 1.500e+01 1.500e+01 1.500e+01 1.500e+01 1.500e+01 1.500e+01 1.500e+01 1.500e+01 1.500e+01 1.500e+01 1.500e+01 1.500e+01 1.500e+01 1.500e+01 1.500e+01 1.500e+01 1.500e+01 1.500e+01 1.500e+01 1.500e+01 1.500e+01 1.500e+01 1.500e+01 1.500e+01 1.500e+01 1.500e+01 1.500e+01 1.500e+01 1.500e+01 1.500e+01 1.500e+01 1.500e+01 1.500e+01 1.500e+01 1.500e+01 1.500e+01 1.500e+01 1.500e+01 1.500e+01 1.500e+01 1.500e+01 1.500e+01 1.500e+01 1.500e+01 1.500e+01 1.500e+01 1.500e+01 1.500e+01 1.500e+01 1.500e+01 1.500e+01 1.500e+01 1.500e+01 1.500e+01 1.500e+01 1.500e+01 1.500e+01 1.500e+01 1.500e+01 1.500e+01 1.500e+01 1.500e+01 1.500e+01 1.500e+01 1.500e+01 1.500e+01 1.500e+01 1.500e+01 1.500e+01 1.500e+01 1.500e+01 1.500e+01 1.500e+01 1.500e+01 1.500e+01 1.500e+01 1.500e+01 1.500e+01 1.500e+01 1.500e+01 1.500e+01 1.500e+01 1.500e+01 1.500e+01 1.500e+01 1.500e+01 1.500e+01 1.500e+01 1.500e+01 1.500e+01 1.500e+01 1.500e+01 1.500e+01 1.500e+01 1.500e+01 1.500e+01 1.500e+01 1.500e+01 1.500e+01 1.500e+01 1.500e+01 1.500e+01 1.500e+01 1.500e+01 1.500e+01 1.500e+01 1.500e+01 1.500e+01 1.500e+01 1.500e+01 1.500e+01 1.500e+01 1.500e+01 1.500e+01 1.500e+01 1.500e+01 1.500e+01 1.500e+01 1.500e+01 1.500e+01 1.500e+01 1.500e+01 1.500e+01 1.500e+01 1.500e+01 1.500e+01 1.500e+01 1.500e+01 1.500e+01 1.500e+01 1.500e+01 1.500e+01 1.500e+01 1.500e+01 1.500e+01 1.500e+01 1.500e+01 1.500e+01 1.500e+01 1.500e+01 1.500e+01 1.500e+01 1.500e+01 1.500e+01 1.500e+01 1.500e+01 1.500e+01 1.500e+01 1.500e+01 1.500e+01 1.500e+01 1.500e+01 1.500e+01 1.500e+01 1.500e+01 1.500e+01 1.500e+01 1.500e+01 1.500e+01 1.500e+01 1.500e+01 1.500e+01 1.500e+01 1.500e+01 1.500e+01 1.500e+01 1.500e+01 1.500e+01 1.500e+01 1.500e+01 1.500e+01 1.500e+01 1.500e+01 1.500e+01 1.500e+01 1.500e+01 1.500e+01 1.500e+01 1.500e+01 1.500e+01 1.500e+01 1.500e+01 1.500e+01 1.500e+01 1.500e+01 1.500e+01 1.500e+01 1.500e+01 1.500e+01 1.500e+01 1.500e+01 1.500e+01 1.500e+01 1.500e+01 1.500e+01 1.500e+01 1.500e+01 1.500e+01 1.500e+01 1.500e+01 1.500e+01 1.500e+01 1.500e+01 1.500e+01 1.500e+01 1.500e+01 1.500e+01 1.500e+01 1.500e+01 1.500e+01 1.500e+01 1.500e+01 1.500e+01 1.500e+01 1.500e+01 1.500e+01 1.500e+01 1.500e+01 1.500e+01 1.500e+01 1.500e+01 1.500e+01 1.500e+01 1.500e+01 1.500e+01 1.500e+01 1.500e+01 1.500e+01 1.500e+01 1.500e+01 1.500e+01 1.500e+01 1.500e+01 1.500e+01 1.500e+01 1.500e+01 1.500e+01 1.500e+01 1.500e+01 1.500e+01 1.500e+01 1.500e+01 1.500e+01 1.500e+01 1.500e+01 1.500e+01 1.500e+01 1.500e+01 1.500e+01 1.500e+01 1.500e+01 1.500e+01 1.500e+01 1.500e+01 1.500e+01 1.500e+01 1.500e+01 1.500e+01 1.500e+01 1.500e+01 1.500e+01 1.500e+01 1.500e+01 1.500e+01 1.500e+01 1.500e+01 1.500e+01 1.500e+01 1.500e+01 1.500e+01 1.500e+01 1.500e+01 1.500e+01 1.500e+01 1.500e+01 1.500e+01 1.500e+01 1.500e+01 1.500e+01 1.500e+01 1.500e+01 1.500e+01 1.500e+01 1.500e+01 1.500e+01 1.500e+01 1.500e+01 1.500e+01 1.500e+01 1.500e+01 1.500e+01 1.500e+01 1.500e+01 1.500e+01 1.500e+01 1.500e+01 1.500e+01 1.500e+01 1.500e+01 1.500e+01 1.500e+01 1.500e+01 1.500e+01 1.500e+01 1.500e+01 1.500e+01 1.500e+01 1.500e+01 1.500e+01 1.500e+01 1.500e+01 1.500e+01 1.500e+01 1.500e+01 1.500e+01 1.500e+01 1.500e+01 1.500e+01 1.500e+01 1.500e+01 1.500e+01 1.500e+01 1.500e+01 1.500e+01 1.500e+01 1.500e+01 1.500e+01 1.500e+01 1.500e+01 1.500e+01 1.500e+01 1.500e+01 1.500e+01 1.500e+01 1.500e+01 1.500e+01 1.500e+01 1.500e+01 1.500e+01 1.500e+01 1.500e+01 1.500e+01 1.500e+01 1.500e+01 1.500e+01 1.500e+01 1.500e+01 1.500e+01 1.500e+01 1.500e+01 1.500e+01 1.500e+01 1.500e+01 1.500e+01 1.500e+01 1.500e+01 1.500e+01 1.500e+01 1.500e+01 1.500e+01 1.500e+01 1.500e+01 1.500e+01 1.500e+01 1.500e+01 1.500e+01 1.500e+01 1.500e+01 1.500e+01 1.500e+01 1.500e+01 1.500e+01 1.500e+01 1.500e+01 1.500e+01 1.500e+01 1.500e+01 1.500e+01 1.500e+01 1.500e+01 1.500e+01 1.500e+01 1.500e+01 1.500e+01 1.500e+01 1.500e+01 1.500e+01 1.500e+01 1.500e+01 1.500e+01 1.500e+01 1.500e+01 1.500e+01 1.500e+01 1.500e+01 1.500e+01 1.500e+01 1.500e+01 1.500e+01 1.500e+01 1.500e+01 1.500e+01 1.500e+01 1.500e+01 1.500e+01 1.500e+01 1.500e+01 1.500e+01 1.500e+01 1.500e+01 1.500e+01 1.500e+01 1.500e+01 1.500e+01 1.500e+01 1.500e+01 1.500e+01 1.500e+01 1.500e+01 1.500e+01 1.500e+01 1.500e+01 1.500e+01 1.500e+01 1.500e+01 1.500e+01 1.500e+01 1.500e+01 1.500e+01 1.500e+01 1.500e+01 1.500e+01 1.500e+01 1.500e+01 1.500e+01 1.500e+01 1.500e+01 1.500e+01 1.500e+01 1.500e+01 1.500e+01 1.500e+01 1.500e+01 1.500e+01 1.500e+01 1.500e+01 1.500e+01 1.500e+01 1.500e+01 1.500e+01 1.500e+01 1.500e+01 1.500e+01 1.500e+01 1.500e+01 1.500e+01 1.500e+01 1.500e+01 1.500e+01 1.500e+01 1.500e+01 1.500e+01 1.500e+01 1.500e+01 1.500e+01 1.500e+01 1.500e+01 1.500e+01 1.500e+01 1.500e+01 1.500e+01 1.500e+01 1.500e+01 1.500e+01 1.500e+01 1.500e+01 1.500e+01 1.500e+01 1.500e+01 1.500e+01 1.500e+01 1.500e+01 1.500e+01 1.500e+01 1.500e+01 1.500e+01 1.500e+01 1.500e+01 1.500e+01 1.500e+01 1.500e+01 1.500e+01 1.500e+01 1.500e+01 1.500e+01 1.500e+01 1.500e+01 1.500e+01 1.500e+01 1.500e+01 1.500e+01 1.500e+01 1.500e+01 1.500e+01 1.500e+01 1.500e+01 1.500e+01 1.500e+01 1.500e+01 1.500e+01 1.500e+01 1.500e+01 1.500e+01 1.500e+01 1.500e+01 1.500e+01 1.500e+01 1.500e+01 1.500e+01 1.500e+01 1.500e+01 1.500e+01 1.500e+01 1.500e+01 1.500e+01 1.500e+01 1.500e+01 1.500e+01 1.500e+01 1.500e+01 1.500e+01 1.500e+01 1.500e+01 1.500e+01 1.500e+01 1.500e+01 1.500e+01 1.500e+01 1.500e+01 1.500e+01 1.500e+01 1.500e+01 1.500e+01 1.500e+01 1.500e+01 1.500e+01 1.500e+01 1.500e+01 1.500e+01 1.500e+01 1.500e+01 1.500e+01 1.500e+01 1.500e+01 1.500e+01 1.500e+01 1.500e+01 1.500e+01 1.500e+01 1.500e+01 1.500e+01 1.500e+01 1.500e+01 1.500e+01 1.500e+01 1.500e+01 1.500e+01 1.500e+01 1.500e+01 1.500e+01 1.500e+01 1.500e+01 1.500e+01 1.500e+01 1.500e+01 1.500e+01 1.500e+01 1.500e+01 1.500e+01 1.500e+01 1.500e+01 1.500e+01 1.500e+01 1.500e+01 1.500e+01 1.500e+01 1.500e+01 1.500e+01 1.500e+01 1.500e+01 1.500e+01 1.500e+01 1.500e+01 1.500e+01 1.500e+01 1.500e+01 1.500e+01 1.500e+01 1.500e+01 1.500e+01 1.500e+01 1.500e+01 1.500e+01 1.500e+01 1.500e+01 1.500e+01 1.500e+01 1.500e+01 1.500e+01 1.500e+01 1.500e+01 1.500e+01 1.500e+01 1.500e+01 1.500e+01 1.500e+01 1.500e+01 1.500e+01 1.500e+01 1.500e+01 1.500e+01 1.500e+01 1.500e+01 1.500e+01 1.500e+01 1.500e+01 1.500e+01 1.500e+01 1.500e+01 1.500e+01 1.500e+01 1.500e+01 1.500e+01 1.500e+01 1.500e+01 1.500e+01 1.500e+01 1.500e+01 1.500e+01 1.500e+01 1.500e+01 1.500e+01 1.500e+01 1.500e+01 1.500e+01 1.500e+01 1.500e+01 1.500e+01 1.500e+01 1.500e+01 1.500e+01 1.500e+01 1.500e+01 1.500e+01 1.500e+01 1.500e+01 1.500e+01 1.500e+01 1.500e+01 1.500e+01 1.500e+01 1.500e+01 1.500e+01 1.500e+01 1.500e+01 1.500e+01 1.500e+01 1.500e+01 1.500e+01 1.500e+01 1.500e+01 1.500e+01 1.500e+01 1.500e+01 1.500e+01 1.500e+01 1.500e+01 1.500e+01 1.500e+01 1.500e+01 1.500e+01 1.500e+01 1.500e+01 1.500e+01 1.500e+01 1.500e+01 1.500e+01 1.500e+01 1.500e+01 1.500e+01 1.500e+01 1.500e+