<?xml version="1.0"?>
<VTKFile type="UnstructuredGrid" version="0.1" byte_order="LittleEndian">
   <UnstructuredGrid>
	      <Piece NumberOfPoints="0" NumberOfCells="0">
	         <Points>
	            <DataArray type="Float32" Name="Position" NumberOfComponents="3" format="ascii">
0			    </DataArray>
	         </Points>
	         <Cells>
	            <DataArray type="Int32" Name="connectivity" NumberOfComponents="1" format="ascii">
	            </DataArray>
	            <DataArray type="Int32" Name="offsets" NumberOfComponents="1" format="ascii">

	            </DataArray>
	            <DataArray type="UInt8"  Name="types" NumberOfComponents="1" format="ascii">

	            </DataArray>
	         </Cells>
         <CellData>
           <DataArray type="Float32" Name="plantID" NumberOfComponents="1" format="ascii">
0
           </DataArray>
           <DataArray type="Float32" Name="plantTypeID" NumberOfComponents="1" format="ascii">
0
           </DataArray>
           <DataArray type="Float32" Name="rootDiameter" NumberOfComponents="1" format="ascii">
0
           </DataArray>
           <DataArray type="Float32" Name="rootSegmentLength" NumberOfComponents="1" format="ascii">
0
           </DataArray>
         </CellData>
	      </Piece>
      <Piece NumberOfPoints="22520" NumberOfCells="2246">
         <Points>
            <DataArray type="Float32" Name="Position" NumberOfComponents="3" format="ascii">
0.000	0.354	-0.354
0.000	0.494	-0.078
0.000	0.446	0.227
0.000	0.227	0.446
0.000	-0.078	0.494
0.000	-0.354	0.354
0.000	-0.494	0.078
0.000	-0.446	-0.227
0.000	-0.227	-0.446
0.000	0.078	-0.494
0.100	0.354	-0.354
0.100	0.494	-0.078
0.100	0.446	0.227
0.100	0.227	0.446
0.100	-0.078	0.494
0.100	-0.354	0.354
0.100	-0.494	0.078
0.100	-0.446	-0.227
0.100	-0.227	-0.446
0.100	0.078	-0.494
0.202	0.353	-0.354
0.202	0.494	-0.079
0.202	0.446	0.226
0.201	0.228	0.445
0.200	-0.077	0.494
0.198	-0.353	0.354
0.198	-0.494	0.079
0.198	-0.446	-0.226
0.199	-0.228	-0.445
0.200	0.077	-0.494
0.219	0.352	-0.355
0.220	0.493	-0.081
0.219	0.446	0.225
0.217	0.229	0.444
0.214	-0.076	0.494
0.211	-0.352	0.355
0.210	-0.494	0.081
0.211	-0.447	-0.225
0.213	-0.229	-0.444
0.216	0.076	-0.494
0.234	0.351	-0.355
0.235	0.493	-0.081
0.234	0.446	0.225
0.232	0.229	0.444
0.229	-0.076	0.494
0.226	-0.352	0.355
0.225	-0.494	0.081
0.226	-0.447	-0.225
0.228	-0.229	-0.444
0.231	0.075	-0.494
0.249	0.351	-0.355
0.250	0.493	-0.081
0.249	0.446	0.225
0.247	0.229	0.444
0.244	-0.076	0.494
0.241	-0.352	0.355
0.240	-0.494	0.081
0.241	-0.447	-0.225
0.243	-0.230	-0.444
0.246	0.075	-0.494
0.264	0.351	-0.355
0.265	0.493	-0.081
0.264	0.446	0.225
0.262	0.229	0.444
0.259	-0.076	0.494
0.256	-0.352	0.355
0.255	-0.494	0.081
0.256	-0.447	-0.225
0.258	-0.230	-0.444
0.261	0.075	-0.494
0.279	0.351	-0.355
0.280	0.493	-0.081
0.279	0.446	0.225
0.277	0.228	0.444
0.274	-0.077	0.494
0.271	-0.353	0.355
0.270	-0.494	0.081
0.271	-0.447	-0.225
0.273	-0.230	-0.444
0.276	0.075	-0.494
0.294	0.351	-0.355
0.295	0.493	-0.081
0.294	0.446	0.225
0.292	0.228	0.444
0.289	-0.077	0.494
0.286	-0.353	0.355
0.285	-0.494	0.081
0.286	-0.447	-0.225
0.288	-0.230	-0.444
0.291	0.075	-0.494
0.309	0.351	-0.355
0.310	0.492	-0.081
0.309	0.446	0.225
0.307	0.228	0.444
0.304	-0.077	0.494
0.301	-0.353	0.355
0.300	-0.494	0.081
0.301	-0.448	-0.225
0.303	-0.230	-0.444
0.306	0.075	-0.494
0.324	0.351	-0.355
0.325	0.492	-0.081
0.324	0.445	0.225
0.322	0.228	0.444
0.319	-0.077	0.494
0.316	-0.353	0.355
0.315	-0.495	0.081
0.316	-0.448	-0.225
0.318	-0.230	-0.444
0.321	0.075	-0.494
0.340	0.350	-0.356
0.342	0.492	-0.082
0.342	0.446	0.224
0.338	0.229	0.444
0.334	-0.076	0.494
0.330	-0.352	0.356
0.328	-0.495	0.082
0.328	-0.448	-0.224
0.332	-0.232	-0.444
0.336	0.073	-0.494
0.357	0.348	-0.357
0.360	0.491	-0.083
0.359	0.446	0.223
0.355	0.230	0.443
0.349	-0.075	0.495
0.343	-0.352	0.357
0.340	-0.495	0.083
0.341	-0.449	-0.223
0.345	-0.233	-0.443
0.351	0.072	-0.495
0.372	0.348	-0.357
0.375	0.491	-0.083
0.374	0.446	0.223
0.370	0.229	0.443
0.364	-0.075	0.495
0.358	-0.352	0.357
0.355	-0.495	0.083
0.356	-0.450	-0.223
0.360	-0.233	-0.443
0.366	0.071	-0.495
0.387	0.348	-0.357
0.390	0.491	-0.083
0.389	0.445	0.223
0.385	0.229	0.443
0.379	-0.076	0.495
0.373	-0.352	0.357
0.370	-0.495	0.083
0.371	-0.450	-0.223
0.375	-0.234	-0.443
0.381	0.071	-0.495
0.402	0.347	-0.357
0.405	0.490	-0.083
0.404	0.445	0.223
0.400	0.229	0.443
0.394	-0.076	0.495
0.388	-0.353	0.357
0.385	-0.496	0.083
0.386	-0.450	-0.223
0.390	-0.234	-0.443
0.396	0.071	-0.495
0.417	0.347	-0.357
0.420	0.490	-0.083
0.419	0.445	0.223
0.415	0.228	0.443
0.409	-0.076	0.495
0.403	-0.353	0.357
0.400	-0.496	0.083
0.401	-0.450	-0.223
0.405	-0.234	-0.443
0.411	0.071	-0.495
0.432	0.347	-0.357
0.435	0.490	-0.083
0.434	0.444	0.223
0.430	0.228	0.443
0.424	-0.077	0.495
0.418	-0.353	0.357
0.415	-0.496	0.083
0.416	-0.451	-0.223
0.420	-0.234	-0.443
0.426	0.070	-0.495
0.447	0.347	-0.357
0.450	0.490	-0.083
0.449	0.444	0.223
0.445	0.228	0.443
0.439	-0.077	0.495
0.433	-0.353	0.357
0.430	-0.496	0.083
0.431	-0.451	-0.223
0.435	-0.235	-0.443
0.441	0.070	-0.495
0.462	0.346	-0.357
0.465	0.489	-0.083
0.464	0.444	0.223
0.460	0.228	0.443
0.454	-0.077	0.495
0.448	-0.354	0.357
0.445	-0.497	0.083
0.446	-0.451	-0.223
0.450	-0.235	-0.443
0.456	0.070	-0.495
0.477	0.346	-0.357
0.480	0.489	-0.083
0.479	0.444	0.223
0.475	0.227	0.443
0.468	-0.077	0.495
0.463	-0.354	0.357
0.460	-0.497	0.083
0.461	-0.452	-0.223
0.465	-0.235	-0.443
0.471	0.069	-0.495
0.492	0.346	-0.357
0.495	0.489	-0.083
0.494	0.443	0.223
0.490	0.227	0.443
0.483	-0.078	0.495
0.478	-0.354	0.357
0.475	-0.497	0.083
0.476	-0.452	-0.223
0.480	-0.236	-0.443
0.486	0.069	-0.495
0.507	0.345	-0.357
0.510	0.488	-0.083
0.509	0.443	0.223
0.505	0.227	0.443
0.498	-0.078	0.495
0.493	-0.355	0.357
0.490	-0.498	0.083
0.491	-0.452	-0.223
0.495	-0.236	-0.443
0.501	0.069	-0.495
0.522	0.345	-0.357
0.525	0.488	-0.083
0.524	0.443	0.223
0.520	0.226	0.443
0.513	-0.078	0.495
0.508	-0.355	0.357
0.505	-0.498	0.083
0.506	-0.453	-0.223
0.510	-0.236	-0.443
0.516	0.068	-0.495
0.537	0.345	-0.357
0.540	0.488	-0.083
0.539	0.442	0.223
0.535	0.226	0.443
0.528	-0.079	0.495
0.523	-0.355	0.357
0.520	-0.498	0.083
0.521	-0.453	-0.223
0.525	-0.237	-0.443
0.531	0.068	-0.495
0.552	0.344	-0.357
0.555	0.487	-0.083
0.554	0.442	0.223
0.550	0.226	0.443
0.543	-0.079	0.495
0.538	-0.356	0.357
0.535	-0.499	0.083
0.536	-0.453	-0.223
0.540	-0.237	-0.443
0.546	0.068	-0.495
0.567	0.344	-0.357
0.570	0.487	-0.083
0.569	0.442	0.223
0.565	0.225	0.443
0.558	-0.079	0.495
0.553	-0.356	0.357
0.550	-0.499	0.083
0.551	-0.453	-0.223
0.555	-0.237	-0.443
0.561	0.068	-0.495
0.582	0.344	-0.357
0.585	0.487	-0.083
0.584	0.441	0.223
0.580	0.225	0.443
0.573	-0.080	0.495
0.568	-0.356	0.357
0.565	-0.499	0.083
0.566	-0.454	-0.223
0.570	-0.237	-0.443
0.576	0.067	-0.495
0.597	0.344	-0.357
0.600	0.487	-0.083
0.599	0.441	0.223
0.595	0.225	0.443
0.588	-0.080	0.495
0.583	-0.356	0.357
0.580	-0.499	0.083
0.581	-0.454	-0.223
0.585	-0.238	-0.443
0.591	0.067	-0.495
0.612	0.343	-0.357
0.615	0.486	-0.083
0.614	0.441	0.223
0.610	0.225	0.443
0.603	-0.080	0.495
0.598	-0.357	0.357
0.595	-0.500	0.083
0.596	-0.454	-0.223
0.600	-0.238	-0.443
0.606	0.067	-0.495
0.627	0.343	-0.357
0.630	0.486	-0.083
0.629	0.441	0.223
0.625	0.224	0.443
0.618	-0.080	0.495
0.613	-0.357	0.357
0.610	-0.500	0.083
0.611	-0.455	-0.223
0.615	-0.238	-0.443
0.621	0.066	-0.495
0.642	0.343	-0.357
0.645	0.486	-0.083
0.644	0.440	0.223
0.640	0.224	0.443
0.633	-0.081	0.495
0.628	-0.357	0.357
0.625	-0.500	0.083
0.626	-0.455	-0.223
0.630	-0.239	-0.443
0.636	0.066	-0.495
0.659	0.341	-0.358
0.662	0.485	-0.084
0.661	0.440	0.222
0.656	0.225	0.443
0.648	-0.080	0.495
0.641	-0.357	0.358
0.638	-0.500	0.084
0.639	-0.456	-0.222
0.644	-0.240	-0.443
0.652	0.065	-0.495
0.675	0.340	-0.359
0.680	0.484	-0.085
0.678	0.440	0.220
0.672	0.225	0.442
0.663	-0.079	0.495
0.654	-0.356	0.359
0.650	-0.501	0.085
0.651	-0.457	-0.220
0.658	-0.241	-0.442
0.667	0.063	-0.495
0.690	0.340	-0.359
0.695	0.484	-0.085
0.693	0.440	0.220
0.687	0.225	0.442
0.678	-0.080	0.495
0.669	-0.357	0.359
0.665	-0.501	0.085
0.666	-0.457	-0.220
0.673	-0.242	-0.442
0.682	0.062	-0.495
0.705	0.339	-0.359
0.710	0.483	-0.085
0.708	0.440	0.220
0.702	0.224	0.442
0.693	-0.080	0.495
0.684	-0.357	0.359
0.680	-0.501	0.085
0.681	-0.458	-0.220
0.688	-0.242	-0.442
0.697	0.062	-0.495
0.720	0.339	-0.359
0.725	0.483	-0.085
0.723	0.439	0.220
0.717	0.224	0.442
0.708	-0.080	0.495
0.699	-0.358	0.359
0.695	-0.502	0.085
0.696	-0.458	-0.220
0.703	-0.243	-0.442
0.712	0.062	-0.495
0.735	0.338	-0.359
0.740	0.483	-0.085
0.738	0.439	0.220
0.732	0.223	0.442
0.723	-0.081	0.495
0.714	-0.358	0.359
0.710	-0.502	0.085
0.711	-0.458	-0.220
0.718	-0.243	-0.442
0.727	0.061	-0.495
0.750	0.338	-0.359
0.755	0.482	-0.085
0.753	0.438	0.220
0.747	0.223	0.442
0.738	-0.081	0.495
0.729	-0.359	0.359
0.725	-0.503	0.085
0.726	-0.459	-0.220
0.733	-0.244	-0.442
0.742	0.061	-0.495
0.765	0.337	-0.359
0.770	0.482	-0.085
0.768	0.438	0.220
0.762	0.223	0.442
0.753	-0.082	0.495
0.744	-0.359	0.359
0.740	-0.503	0.085
0.741	-0.459	-0.220
0.748	-0.244	-0.442
0.757	0.060	-0.495
0.780	0.337	-0.359
0.785	0.481	-0.085
0.783	0.437	0.220
0.777	0.222	0.442
0.768	-0.082	0.495
0.759	-0.359	0.359
0.755	-0.504	0.085
0.756	-0.460	-0.220
0.763	-0.245	-0.442
0.772	0.060	-0.495
0.795	0.337	-0.359
0.800	0.481	-0.085
0.798	0.437	0.220
0.792	0.222	0.442
0.783	-0.083	0.495
0.774	-0.360	0.359
0.770	-0.504	0.085
0.771	-0.460	-0.220
0.778	-0.245	-0.442
0.787	0.059	-0.495
0.810	0.336	-0.359
0.815	0.480	-0.085
0.813	0.436	0.220
0.807	0.221	0.442
0.798	-0.083	0.495
0.789	-0.360	0.359
0.785	-0.505	0.085
0.786	-0.461	-0.220
0.793	-0.245	-0.442
0.802	0.059	-0.495
0.825	0.336	-0.359
0.830	0.480	-0.085
0.828	0.436	0.220
0.822	0.221	0.442
0.813	-0.084	0.495
0.804	-0.361	0.359
0.800	-0.505	0.085
0.801	-0.461	-0.220
0.808	-0.246	-0.442
0.817	0.058	-0.495
0.840	0.335	-0.359
0.845	0.479	-0.085
0.843	0.436	0.220
0.837	0.220	0.442
0.828	-0.084	0.495
0.819	-0.361	0.359
0.815	-0.505	0.085
0.816	-0.462	-0.220
0.823	-0.246	-0.442
0.832	0.058	-0.495
0.855	0.335	-0.359
0.860	0.479	-0.085
0.858	0.435	0.220
0.852	0.220	0.442
0.843	-0.084	0.495
0.834	-0.362	0.359
0.830	-0.506	0.085
0.831	-0.462	-0.220
0.838	-0.247	-0.442
0.847	0.057	-0.495
0.870	0.334	-0.359
0.875	0.478	-0.085
0.873	0.435	0.220
0.867	0.219	0.442
0.858	-0.085	0.495
0.849	-0.362	0.359
0.845	-0.506	0.085
0.846	-0.463	-0.220
0.853	-0.247	-0.442
0.862	0.057	-0.495
0.885	0.334	-0.359
0.890	0.478	-0.085
0.888	0.434	0.220
0.882	0.219	0.442
0.873	-0.085	0.495
0.864	-0.363	0.359
0.860	-0.507	0.085
0.861	-0.463	-0.220
0.868	-0.248	-0.442
0.877	0.057	-0.495
0.900	0.333	-0.359
0.905	0.478	-0.085
0.903	0.434	0.220
0.897	0.219	0.442
0.888	-0.086	0.495
0.879	-0.363	0.359
0.875	-0.507	0.085
0.876	-0.463	-0.220
0.883	-0.248	-0.442
0.892	0.056	-0.495
0.915	0.333	-0.359
0.920	0.477	-0.085
0.918	0.433	0.220
0.912	0.218	0.442
0.903	-0.086	0.495
0.894	-0.364	0.359
0.890	-0.508	0.085
0.891	-0.464	-0.220
0.898	-0.249	-0.442
0.907	0.056	-0.495
0.930	0.332	-0.359
0.935	0.477	-0.085
0.933	0.433	0.220
0.927	0.218	0.442
0.918	-0.087	0.495
0.909	-0.364	0.359
0.905	-0.508	0.085
0.906	-0.464	-0.220
0.913	-0.249	-0.442
0.922	0.055	-0.495
0.947	0.331	-0.359
0.952	0.476	-0.087
0.951	0.433	0.219
0.943	0.218	0.442
0.932	-0.086	0.495
0.923	-0.364	0.359
0.918	-0.508	0.087
0.919	-0.465	-0.219
0.927	-0.251	-0.442
0.937	0.054	-0.495
0.964	0.330	-0.360
0.969	0.475	-0.088
0.968	0.433	0.218
0.959	0.219	0.441
0.947	-0.085	0.495
0.936	-0.363	0.360
0.930	-0.509	0.088
0.932	-0.466	-0.218
0.940	-0.252	-0.441
0.953	0.052	-0.495
0.979	0.329	-0.360
0.984	0.474	-0.088
0.983	0.432	0.218
0.974	0.218	0.441
0.962	-0.086	0.495
0.951	-0.364	0.360
0.945	-0.509	0.088
0.947	-0.467	-0.218
0.955	-0.253	-0.441
0.968	0.051	-0.495
0.994	0.328	-0.360
0.999	0.474	-0.088
0.998	0.431	0.218
0.989	0.217	0.441
0.977	-0.087	0.495
0.966	-0.364	0.360
0.960	-0.510	0.088
0.962	-0.467	-0.218
0.970	-0.253	-0.441
0.983	0.051	-0.495
1.009	0.328	-0.360
1.014	0.473	-0.088
1.013	0.431	0.218
1.004	0.217	0.441
0.992	-0.087	0.495
0.981	-0.365	0.360
0.975	-0.510	0.088
0.977	-0.468	-0.218
0.985	-0.254	-0.441
0.998	0.050	-0.495
1.024	0.327	-0.360
1.029	0.473	-0.088
1.028	0.430	0.218
1.019	0.216	0.441
1.007	-0.088	0.495
0.996	-0.366	0.360
0.990	-0.511	0.088
0.992	-0.469	-0.218
1.000	-0.255	-0.441
1.012	0.049	-0.495
1.039	0.327	-0.360
1.044	0.472	-0.088
1.043	0.430	0.218
1.034	0.216	0.441
1.022	-0.088	0.495
1.011	-0.366	0.360
1.005	-0.512	0.088
1.007	-0.469	-0.218
1.015	-0.255	-0.441
1.027	0.049	-0.495
1.054	0.326	-0.360
1.059	0.471	-0.088
1.058	0.429	0.218
1.049	0.215	0.441
1.037	-0.089	0.495
1.026	-0.367	0.360
1.020	-0.512	0.088
1.022	-0.470	-0.218
1.030	-0.256	-0.441
1.042	0.048	-0.495
1.069	0.325	-0.360
1.074	0.471	-0.088
1.073	0.428	0.218
1.064	0.214	0.441
1.052	-0.090	0.495
1.041	-0.367	0.360
1.035	-0.513	0.088
1.037	-0.470	-0.218
1.045	-0.256	-0.441
1.057	0.048	-0.495
1.084	0.325	-0.360
1.089	0.470	-0.088
1.088	0.428	0.218
1.079	0.214	0.441
1.067	-0.090	0.495
1.056	-0.368	0.360
1.050	-0.513	0.088
1.052	-0.471	-0.218
1.060	-0.257	-0.441
1.072	0.047	-0.495
1.099	0.324	-0.360
1.104	0.470	-0.088
1.103	0.427	0.218
1.094	0.213	0.441
1.082	-0.091	0.495
1.071	-0.369	0.360
1.065	-0.514	0.088
1.067	-0.472	-0.218
1.075	-0.258	-0.441
1.087	0.046	-0.495
1.114	0.324	-0.360
1.119	0.469	-0.088
1.118	0.427	0.218
1.109	0.213	0.441
1.097	-0.091	0.495
1.086	-0.369	0.360
1.080	-0.515	0.088
1.082	-0.472	-0.218
1.090	-0.258	-0.441
1.102	0.046	-0.495
1.129	0.323	-0.360
1.134	0.468	-0.088
1.133	0.426	0.218
1.124	0.212	0.441
1.112	-0.092	0.495
1.101	-0.370	0.360
1.095	-0.515	0.088
1.097	-0.473	-0.218
1.105	-0.259	-0.441
1.117	0.045	-0.495
1.144	0.322	-0.360
1.149	0.468	-0.088
1.148	0.425	0.218
1.139	0.211	0.441
1.127	-0.093	0.495
1.116	-0.370	0.360
1.110	-0.516	0.088
1.112	-0.473	-0.218
1.120	-0.259	-0.441
1.132	0.045	-0.495
1.158	0.322	-0.360
1.164	0.467	-0.088
1.163	0.425	0.218
1.154	0.211	0.441
1.142	-0.093	0.495
1.131	-0.371	0.360
1.125	-0.516	0.088
1.127	-0.474	-0.218
1.135	-0.260	-0.441
1.147	0.044	-0.495
1.173	0.321	-0.360
1.179	0.467	-0.088
1.178	0.424	0.218
1.169	0.210	0.441
1.157	-0.094	0.495
1.146	-0.372	0.360
1.140	-0.517	0.088
1.142	-0.475	-0.218
1.150	-0.261	-0.441
1.162	0.043	-0.495
1.188	0.321	-0.360
1.194	0.466	-0.088
1.193	0.424	0.218
1.184	0.210	0.441
1.172	-0.094	0.495
1.161	-0.372	0.360
1.155	-0.518	0.088
1.157	-0.475	-0.218
1.165	-0.261	-0.441
1.177	0.043	-0.495
1.203	0.320	-0.360
1.209	0.465	-0.088
1.208	0.423	0.218
1.199	0.209	0.441
1.187	-0.095	0.495
1.176	-0.373	0.360
1.170	-0.518	0.088
1.172	-0.476	-0.218
1.180	-0.262	-0.441
1.192	0.042	-0.495
1.218	0.319	-0.360
1.224	0.465	-0.088
1.223	0.422	0.218
1.214	0.208	0.441
1.202	-0.096	0.495
1.191	-0.373	0.360
1.185	-0.519	0.088
1.187	-0.476	-0.218
1.195	-0.262	-0.441
1.207	0.042	-0.495
1.233	0.319	-0.360
1.239	0.464	-0.088
1.238	0.422	0.218
1.229	0.208	0.441
1.217	-0.096	0.495
1.206	-0.374	0.360
1.200	-0.519	0.088
1.202	-0.477	-0.218
1.210	-0.263	-0.441
1.222	0.041	-0.495
1.248	0.318	-0.360
1.254	0.464	-0.088
1.253	0.421	0.218
1.244	0.207	0.441
1.232	-0.097	0.495
1.221	-0.375	0.360
1.215	-0.520	0.088
1.217	-0.478	-0.218
1.225	-0.264	-0.441
1.237	0.040	-0.495
1.265	0.317	-0.361
1.272	0.463	-0.089
1.270	0.421	0.217
1.260	0.207	0.441
1.247	-0.096	0.495
1.234	-0.374	0.361
1.227	-0.520	0.089
1.229	-0.479	-0.217
1.239	-0.265	-0.441
1.253	0.039	-0.495
1.282	0.315	-0.362
1.289	0.462	-0.090
1.287	0.421	0.216
1.276	0.208	0.440
1.261	-0.096	0.496
1.247	-0.374	0.362
1.240	-0.521	0.090
1.242	-0.480	-0.216
1.253	-0.267	-0.440
1.268	0.037	-0.496
1.297	0.314	-0.362
1.304	0.461	-0.090
1.302	0.420	0.216
1.291	0.207	0.440
1.276	-0.097	0.496
1.262	-0.375	0.362
1.255	-0.522	0.090
1.257	-0.480	-0.216
1.268	-0.268	-0.440
1.283	0.036	-0.496
1.312	0.314	-0.362
1.319	0.460	-0.090
1.317	0.419	0.216
1.306	0.206	0.440
1.291	-0.097	0.496
1.277	-0.376	0.362
1.270	-0.522	0.090
1.272	-0.481	-0.216
1.283	-0.268	-0.440
1.298	0.035	-0.496
1.327	0.313	-0.362
1.334	0.459	-0.090
1.332	0.418	0.216
1.321	0.205	0.440
1.306	-0.098	0.496
1.292	-0.376	0.362
1.285	-0.523	0.090
1.287	-0.482	-0.216
1.298	-0.269	-0.440
1.313	0.035	-0.496
1.342	0.312	-0.362
1.349	0.459	-0.090
1.347	0.418	0.216
1.336	0.205	0.440
1.321	-0.099	0.496
1.307	-0.377	0.362
1.300	-0.524	0.090
1.302	-0.483	-0.216
1.313	-0.270	-0.440
1.328	0.034	-0.496
1.357	0.311	-0.362
1.364	0.458	-0.090
1.362	0.417	0.216
1.351	0.204	0.440
1.336	-0.100	0.496
1.322	-0.378	0.362
1.315	-0.525	0.090
1.317	-0.483	-0.216
1.328	-0.271	-0.440
1.343	0.033	-0.496
1.372	0.311	-0.362
1.379	0.457	-0.090
1.377	0.416	0.216
1.366	0.203	0.440
1.351	-0.100	0.496
1.337	-0.379	0.362
1.330	-0.525	0.090
1.332	-0.484	-0.216
1.343	-0.271	-0.440
1.358	0.032	-0.496
1.387	0.310	-0.362
1.394	0.456	-0.090
1.392	0.415	0.216
1.381	0.202	0.440
1.366	-0.101	0.496
1.352	-0.379	0.362
1.345	-0.526	0.090
1.347	-0.485	-0.216
1.358	-0.272	-0.440
1.373	0.032	-0.496
1.402	0.309	-0.362
1.409	0.456	-0.090
1.407	0.415	0.216
1.396	0.202	0.440
1.381	-0.102	0.496
1.367	-0.380	0.362
1.360	-0.527	0.090
1.362	-0.486	-0.216
1.373	-0.273	-0.440
1.388	0.031	-0.496
1.417	0.308	-0.362
1.424	0.455	-0.090
1.422	0.414	0.216
1.411	0.201	0.440
1.396	-0.103	0.496
1.382	-0.381	0.362
1.375	-0.528	0.090
1.377	-0.486	-0.216
1.387	-0.274	-0.440
1.403	0.030	-0.496
1.432	0.308	-0.362
1.439	0.454	-0.090
1.437	0.413	0.216
1.426	0.200	0.440
1.411	-0.103	0.496
1.397	-0.382	0.362
1.390	-0.528	0.090
1.392	-0.487	-0.216
1.402	-0.274	-0.440
1.418	0.029	-0.496
1.447	0.307	-0.362
1.454	0.453	-0.090
1.452	0.412	0.216
1.441	0.199	0.440
1.426	-0.104	0.496
1.412	-0.382	0.362
1.405	-0.529	0.090
1.407	-0.488	-0.216
1.417	-0.275	-0.440
1.433	0.029	-0.496
1.462	0.306	-0.362
1.469	0.453	-0.090
1.467	0.412	0.216
1.456	0.199	0.440
1.441	-0.105	0.496
1.427	-0.383	0.362
1.420	-0.530	0.090
1.422	-0.489	-0.216
1.432	-0.276	-0.440
1.448	0.028	-0.496
1.477	0.305	-0.362
1.484	0.452	-0.090
1.482	0.411	0.216
1.471	0.198	0.440
1.456	-0.106	0.496
1.442	-0.384	0.362
1.435	-0.531	0.090
1.437	-0.489	-0.216
1.447	-0.277	-0.440
1.463	0.027	-0.496
1.492	0.305	-0.362
1.499	0.451	-0.090
1.497	0.410	0.216
1.486	0.197	0.440
1.471	-0.106	0.496
1.457	-0.385	0.362
1.450	-0.531	0.090
1.452	-0.490	-0.216
1.462	-0.277	-0.440
1.478	0.026	-0.496
1.506	0.304	-0.362
1.514	0.450	-0.090
1.512	0.409	0.216
1.501	0.196	0.440
1.486	-0.107	0.496
1.472	-0.385	0.362
1.465	-0.532	0.090
1.467	-0.491	-0.216
1.477	-0.278	-0.440
1.493	0.026	-0.496
1.521	0.303	-0.362
1.529	0.450	-0.090
1.527	0.409	0.216
1.516	0.196	0.440
1.501	-0.108	0.496
1.487	-0.386	0.362
1.480	-0.533	0.090
1.482	-0.492	-0.216
1.492	-0.279	-0.440
1.508	0.025	-0.496
1.536	0.302	-0.362
1.544	0.449	-0.090
1.542	0.408	0.216
1.531	0.195	0.440
1.516	-0.109	0.496
1.502	-0.387	0.362
1.495	-0.534	0.090
1.497	-0.492	-0.216
1.507	-0.279	-0.440
1.523	0.024	-0.496
1.551	0.302	-0.362
1.559	0.448	-0.090
1.557	0.407	0.216
1.546	0.194	0.440
1.531	-0.109	0.496
1.517	-0.388	0.362
1.510	-0.534	0.090
1.512	-0.493	-0.216
1.522	-0.280	-0.440
1.538	0.023	-0.496
1.568	0.300	-0.363
1.576	0.447	-0.091
1.574	0.407	0.215
1.562	0.194	0.439
1.546	-0.109	0.496
1.530	-0.387	0.363
1.522	-0.535	0.091
1.524	-0.494	-0.215
1.536	-0.282	-0.439
1.553	0.021	-0.496
1.585	0.298	-0.363
1.594	0.446	-0.092
1.591	0.406	0.214
1.578	0.194	0.439
1.560	-0.109	0.496
1.544	-0.387	0.363
1.535	-0.535	0.092
1.537	-0.496	-0.214
1.550	-0.284	-0.439
1.568	0.019	-0.496
1.600	0.297	-0.363
1.609	0.445	-0.092
1.606	0.405	0.214
1.593	0.193	0.439
1.575	-0.110	0.496
1.559	-0.388	0.363
1.550	-0.536	0.092
1.552	-0.496	-0.214
1.565	-0.285	-0.439
1.583	0.019	-0.496
1.615	0.296	-0.363
1.624	0.444	-0.092
1.621	0.404	0.214
1.608	0.193	0.439
1.590	-0.111	0.496
1.574	-0.389	0.363
1.565	-0.537	0.092
1.567	-0.497	-0.214
1.580	-0.286	-0.439
1.598	0.018	-0.496
1.630	0.295	-0.363
1.639	0.443	-0.092
1.636	0.404	0.214
1.623	0.192	0.439
1.605	-0.111	0.496
1.588	-0.390	0.363
1.580	-0.538	0.092
1.582	-0.498	-0.214
1.595	-0.286	-0.439
1.613	0.017	-0.496
1.645	0.295	-0.363
1.653	0.442	-0.092
1.651	0.403	0.214
1.638	0.191	0.439
1.620	-0.112	0.496
1.603	-0.391	0.363
1.595	-0.539	0.092
1.597	-0.499	-0.214
1.610	-0.287	-0.439
1.628	0.016	-0.496
1.660	0.294	-0.363
1.668	0.441	-0.092
1.666	0.402	0.214
1.653	0.190	0.439
1.635	-0.113	0.496
1.618	-0.392	0.363
1.610	-0.540	0.092
1.612	-0.500	-0.214
1.625	-0.288	-0.439
1.643	0.015	-0.496
1.675	0.293	-0.363
1.683	0.440	-0.092
1.681	0.401	0.214
1.668	0.189	0.439
1.650	-0.114	0.496
1.633	-0.393	0.363
1.625	-0.541	0.092
1.627	-0.501	-0.214
1.640	-0.289	-0.439
1.658	0.014	-0.496
1.690	0.292	-0.363
1.698	0.440	-0.092
1.696	0.400	0.214
1.683	0.188	0.439
1.665	-0.115	0.496
1.648	-0.394	0.363
1.640	-0.542	0.092
1.642	-0.502	-0.214
1.655	-0.290	-0.439
1.673	0.013	-0.496
1.705	0.291	-0.363
1.713	0.439	-0.092
1.711	0.399	0.214
1.698	0.187	0.439
1.680	-0.116	0.496
1.663	-0.395	0.363
1.654	-0.542	0.092
1.657	-0.503	-0.214
1.670	-0.291	-0.439
1.688	0.012	-0.496
1.719	0.290	-0.363
1.728	0.438	-0.092
1.726	0.398	0.214
1.713	0.186	0.439
1.695	-0.117	0.496
1.678	-0.396	0.363
1.669	-0.543	0.092
1.672	-0.504	-0.214
1.685	-0.292	-0.439
1.703	0.011	-0.496
1.734	0.289	-0.363
1.743	0.437	-0.092
1.741	0.397	0.214
1.728	0.185	0.439
1.710	-0.118	0.496
1.693	-0.396	0.363
1.684	-0.544	0.092
1.687	-0.505	-0.214
1.700	-0.293	-0.439
1.718	0.010	-0.496
1.749	0.288	-0.363
1.758	0.436	-0.092
1.756	0.396	0.214
1.743	0.184	0.439
1.725	-0.119	0.496
1.708	-0.397	0.363
1.699	-0.545	0.092
1.702	-0.505	-0.214
1.715	-0.294	-0.439
1.733	0.010	-0.496
1.764	0.287	-0.363
1.773	0.435	-0.092
1.771	0.395	0.214
1.758	0.184	0.439
1.740	-0.120	0.496
1.723	-0.398	0.363
1.714	-0.546	0.092
1.717	-0.506	-0.214
1.729	-0.295	-0.439
1.748	0.009	-0.496
1.779	0.286	-0.363
1.788	0.434	-0.092
1.786	0.395	0.214
1.773	0.183	0.439
1.755	-0.120	0.496
1.738	-0.399	0.363
1.729	-0.547	0.092
1.732	-0.507	-0.214
1.744	-0.295	-0.439
1.763	0.008	-0.496
1.794	0.286	-0.363
1.803	0.433	-0.092
1.801	0.394	0.214
1.788	0.182	0.439
1.770	-0.121	0.496
1.753	-0.400	0.363
1.744	-0.548	0.092
1.747	-0.508	-0.214
1.759	-0.296	-0.439
1.778	0.007	-0.496
1.809	0.285	-0.363
1.818	0.432	-0.092
1.816	0.393	0.214
1.803	0.181	0.439
1.785	-0.122	0.496
1.768	-0.401	0.363
1.759	-0.549	0.092
1.762	-0.509	-0.214
1.774	-0.297	-0.439
1.793	0.006	-0.496
1.824	0.284	-0.363
1.833	0.432	-0.092
1.831	0.392	0.214
1.818	0.180	0.439
1.800	-0.123	0.496
1.783	-0.402	0.363
1.774	-0.550	0.092
1.777	-0.510	-0.214
1.789	-0.298	-0.439
1.808	0.005	-0.496
1.839	0.283	-0.363
1.848	0.431	-0.092
1.846	0.391	0.214
1.833	0.179	0.439
1.815	-0.124	0.496
1.798	-0.403	0.363
1.789	-0.551	0.092
1.792	-0.511	-0.214
1.804	-0.299	-0.439
1.823	0.004	-0.496
1.854	0.282	-0.363
1.863	0.430	-0.092
1.861	0.390	0.214
1.848	0.178	0.439
1.830	-0.125	0.496
1.813	-0.404	0.363
1.804	-0.551	0.092
1.807	-0.512	-0.214
1.819	-0.300	-0.439
1.838	0.003	-0.496
1.871	0.280	-0.364
1.881	0.428	-0.093
1.878	0.390	0.213
1.864	0.178	0.438
1.845	-0.125	0.496
1.826	-0.404	0.364
1.817	-0.552	0.093
1.819	-0.513	-0.213
1.833	-0.302	-0.438
1.853	0.001	-0.496
1.887	0.278	-0.365
1.898	0.427	-0.094
1.895	0.389	0.212
1.880	0.178	0.438
1.859	-0.125	0.496
1.840	-0.404	0.365
1.829	-0.553	0.094
1.832	-0.514	-0.212
1.847	-0.304	-0.438
1.868	-0.001	-0.496
1.902	0.277	-0.365
1.913	0.426	-0.094
1.910	0.388	0.212
1.895	0.177	0.438
1.874	-0.126	0.496
1.855	-0.405	0.365
1.844	-0.554	0.094
1.847	-0.515	-0.212
1.862	-0.305	-0.438
1.883	-0.002	-0.496
1.917	0.276	-0.365
1.928	0.425	-0.094
1.925	0.387	0.212
1.910	0.176	0.438
1.889	-0.127	0.496
1.870	-0.406	0.365
1.859	-0.555	0.094
1.862	-0.516	-0.212
1.877	-0.306	-0.438
1.898	-0.003	-0.496
1.932	0.275	-0.365
1.943	0.424	-0.094
1.940	0.386	0.212
1.925	0.175	0.438
1.904	-0.128	0.496
1.885	-0.407	0.365
1.874	-0.556	0.094
1.877	-0.518	-0.212
1.892	-0.307	-0.438
1.913	-0.004	-0.496
1.947	0.274	-0.365
1.958	0.423	-0.094
1.955	0.385	0.212
1.940	0.174	0.438
1.919	-0.129	0.496
1.900	-0.408	0.365
1.889	-0.557	0.094
1.892	-0.519	-0.212
1.907	-0.308	-0.438
1.928	-0.005	-0.496
1.962	0.273	-0.365
1.973	0.422	-0.094
1.970	0.384	0.212
1.955	0.173	0.438
1.934	-0.130	0.496
1.915	-0.409	0.365
1.904	-0.558	0.094
1.907	-0.520	-0.212
1.922	-0.309	-0.438
1.943	-0.006	-0.496
1.977	0.272	-0.365
1.988	0.421	-0.094
1.985	0.382	0.212
1.970	0.172	0.438
1.949	-0.131	0.496
1.929	-0.410	0.365
1.919	-0.559	0.094
1.922	-0.521	-0.212
1.937	-0.310	-0.438
1.958	-0.007	-0.496
1.992	0.271	-0.365
2.003	0.420	-0.094
2.000	0.381	0.212
1.985	0.171	0.438
1.964	-0.132	0.496
1.944	-0.411	0.365
1.934	-0.560	0.094
1.937	-0.522	-0.212
1.951	-0.311	-0.438
1.973	-0.008	-0.496
2.007	0.270	-0.365
2.018	0.419	-0.094
2.015	0.380	0.212
2.000	0.170	0.438
1.979	-0.133	0.496
1.959	-0.412	0.365
1.949	-0.561	0.094
1.952	-0.523	-0.212
1.966	-0.312	-0.438
1.988	-0.009	-0.496
2.022	0.269	-0.365
2.033	0.418	-0.094
2.030	0.379	0.212
2.015	0.169	0.438
1.994	-0.134	0.496
1.974	-0.413	0.365
1.964	-0.562	0.094
1.967	-0.524	-0.212
1.981	-0.313	-0.438
2.003	-0.010	-0.496
2.037	0.268	-0.365
2.048	0.417	-0.094
2.045	0.378	0.212
2.030	0.168	0.438
2.009	-0.135	0.496
1.989	-0.414	0.365
1.979	-0.563	0.094
1.982	-0.525	-0.212
1.996	-0.314	-0.438
2.018	-0.011	-0.496
2.052	0.267	-0.365
2.063	0.416	-0.094
2.060	0.377	0.212
2.045	0.166	0.438
2.024	-0.136	0.496
2.004	-0.415	0.365
1.994	-0.564	0.094
1.997	-0.526	-0.212
2.011	-0.315	-0.438
2.033	-0.012	-0.496
2.067	0.266	-0.365
2.077	0.414	-0.094
2.075	0.376	0.212
2.060	0.165	0.438
2.039	-0.137	0.496
2.019	-0.416	0.365
2.009	-0.565	0.094
2.012	-0.527	-0.212
2.026	-0.316	-0.438
2.047	-0.013	-0.496
2.082	0.265	-0.365
2.092	0.413	-0.094
2.090	0.375	0.212
2.075	0.164	0.438
2.054	-0.138	0.496
2.034	-0.417	0.365
2.024	-0.566	0.094
2.026	-0.528	-0.212
2.041	-0.317	-0.438
2.062	-0.014	-0.496
2.097	0.264	-0.365
2.107	0.412	-0.094
2.105	0.374	0.212
2.090	0.163	0.438
2.069	-0.139	0.496
2.049	-0.418	0.365
2.039	-0.567	0.094
2.041	-0.529	-0.212
2.056	-0.318	-0.438
2.077	-0.016	-0.496
2.112	0.262	-0.365
2.122	0.411	-0.094
2.120	0.373	0.212
2.105	0.162	0.438
2.084	-0.140	0.496
2.064	-0.420	0.365
2.054	-0.568	0.094
2.056	-0.530	-0.212
2.071	-0.319	-0.438
2.092	-0.017	-0.496
2.127	0.261	-0.365
2.137	0.410	-0.094
2.135	0.372	0.212
2.120	0.161	0.438
2.099	-0.141	0.496
2.079	-0.421	0.365
2.069	-0.569	0.094
2.071	-0.531	-0.212
2.086	-0.320	-0.438
2.107	-0.018	-0.496
2.142	0.260	-0.365
2.152	0.409	-0.094
2.150	0.371	0.212
2.135	0.160	0.438
2.114	-0.143	0.496
2.094	-0.422	0.365
2.084	-0.570	0.094
2.086	-0.532	-0.212
2.101	-0.321	-0.438
2.122	-0.019	-0.496
2.157	0.259	-0.365
2.167	0.408	-0.094
2.165	0.370	0.212
2.150	0.159	0.438
2.129	-0.144	0.496
2.109	-0.423	0.365
2.099	-0.571	0.094
2.101	-0.533	-0.212
2.116	-0.322	-0.438
2.137	-0.020	-0.496
2.173	0.257	-0.366
2.185	0.407	-0.095
2.182	0.369	0.211
2.166	0.159	0.437
2.143	-0.144	0.496
2.122	-0.423	0.366
2.111	-0.572	0.095
2.114	-0.535	-0.211
2.130	-0.324	-0.437
2.152	-0.022	-0.496
2.190	0.255	-0.366
2.202	0.405	-0.096
2.199	0.368	0.210
2.182	0.159	0.437
2.158	-0.144	0.496
2.136	-0.423	0.366
2.124	-0.573	0.096
2.127	-0.536	-0.210
2.143	-0.326	-0.437
2.168	-0.024	-0.496
2.205	0.254	-0.366
2.217	0.404	-0.096
2.214	0.367	0.210
2.197	0.157	0.437
2.173	-0.145	0.496
2.151	-0.424	0.366
2.139	-0.574	0.096
2.142	-0.537	-0.210
2.158	-0.328	-0.437
2.183	-0.025	-0.496
2.220	0.253	-0.366
2.232	0.403	-0.096
2.229	0.366	0.210
2.212	0.156	0.437
2.188	-0.146	0.496
2.166	-0.425	0.366
2.154	-0.575	0.096
2.157	-0.538	-0.210
2.173	-0.329	-0.437
2.198	-0.027	-0.496
2.235	0.252	-0.366
2.247	0.402	-0.096
2.244	0.365	0.210
2.227	0.155	0.437
2.203	-0.147	0.496
2.181	-0.427	0.366
2.169	-0.577	0.096
2.172	-0.540	-0.210
2.188	-0.330	-0.437
2.212	-0.028	-0.496
2.250	0.250	-0.366
2.262	0.400	-0.096
2.259	0.363	0.210
2.242	0.154	0.437
2.218	-0.148	0.496
2.196	-0.428	0.366
2.184	-0.578	0.096
2.186	-0.541	-0.210
2.203	-0.331	-0.437
2.227	-0.029	-0.496
2.265	0.249	-0.366
2.277	0.399	-0.096
2.274	0.362	0.210
2.257	0.153	0.437
2.233	-0.150	0.496
2.210	-0.429	0.366
2.198	-0.579	0.096
2.201	-0.542	-0.210
2.218	-0.332	-0.437
2.242	-0.030	-0.496
2.280	0.248	-0.366
2.292	0.398	-0.096
2.289	0.361	0.210
2.272	0.151	0.437
2.248	-0.151	0.496
2.225	-0.430	0.366
2.213	-0.580	0.096
2.216	-0.543	-0.210
2.233	-0.334	-0.437
2.257	-0.031	-0.496
2.295	0.247	-0.366
2.307	0.397	-0.096
2.304	0.360	0.210
2.287	0.150	0.437
2.263	-0.152	0.496
2.240	-0.431	0.366
2.228	-0.581	0.096
2.231	-0.544	-0.210
2.248	-0.335	-0.437
2.272	-0.033	-0.496
2.310	0.246	-0.366
2.322	0.396	-0.096
2.319	0.359	0.210
2.302	0.149	0.437
2.278	-0.153	0.496
2.255	-0.433	0.366
2.243	-0.583	0.096
2.246	-0.546	-0.210
2.263	-0.336	-0.437
2.287	-0.034	-0.496
2.325	0.245	-0.366
2.337	0.394	-0.096
2.334	0.357	0.210
2.317	0.148	0.437
2.293	-0.154	0.496
2.270	-0.434	0.366
2.258	-0.584	0.096
2.261	-0.547	-0.210
2.278	-0.337	-0.437
2.302	-0.035	-0.496
2.340	0.243	-0.366
2.352	0.393	-0.096
2.349	0.356	0.210
2.332	0.147	0.437
2.308	-0.156	0.496
2.285	-0.435	0.366
2.273	-0.585	0.096
2.276	-0.548	-0.210
2.293	-0.338	-0.437
2.317	-0.036	-0.496
2.354	0.242	-0.366
2.366	0.392	-0.096
2.364	0.355	0.210
2.347	0.145	0.437
2.323	-0.157	0.496
2.300	-0.436	0.366
2.288	-0.586	0.096
2.291	-0.549	-0.210
2.308	-0.340	-0.437
2.332	-0.037	-0.496
2.369	0.241	-0.366
2.381	0.391	-0.096
2.378	0.354	0.210
2.362	0.144	0.437
2.337	-0.158	0.496
2.315	-0.437	0.366
2.303	-0.587	0.096
2.306	-0.550	-0.210
2.323	-0.341	-0.437
2.347	-0.039	-0.496
2.384	0.240	-0.366
2.396	0.390	-0.096
2.393	0.353	0.210
2.377	0.143	0.437
2.352	-0.159	0.496
2.330	-0.439	0.366
2.318	-0.589	0.096
2.321	-0.552	-0.210
2.338	-0.342	-0.437
2.362	-0.040	-0.496
2.399	0.239	-0.366
2.411	0.388	-0.096
2.408	0.351	0.210
2.392	0.142	0.437
2.367	-0.160	0.496
2.345	-0.440	0.366
2.333	-0.590	0.096
2.336	-0.553	-0.210
2.353	-0.343	-0.437
2.377	-0.041	-0.496
2.414	0.237	-0.366
2.426	0.387	-0.096
2.423	0.350	0.210
2.407	0.141	0.437
2.382	-0.162	0.496
2.360	-0.441	0.366
2.348	-0.591	0.096
2.351	-0.554	-0.210
2.368	-0.344	-0.437
2.392	-0.042	-0.496
2.429	0.236	-0.366
2.441	0.386	-0.096
2.438	0.349	0.210
2.422	0.139	0.437
2.397	-0.163	0.496
2.375	-0.442	0.366
2.363	-0.592	0.096
2.366	-0.555	-0.210
2.383	-0.346	-0.437
2.407	-0.043	-0.496
2.444	0.235	-0.366