<?xml version="1.0"?>
<VTKFile type="PolyData" version="0.1" byte_order="LittleEndian">
   <PolyData>
 <Piece NumberOfPoints="2252" NumberOfLines="6" NumberOfVerts="0" NumberOfStrips="0" NumberOfPolys="0">
    <Points>
       <DataArray type="Float32" Name="Position" NumberOfComponents="3" format="ascii">
0.000	0.000	0.000
0.100	0.000	0.000
0.200	0.000	0.000
0.215	-0.000	0.000
0.230	-0.000	0.000
0.245	-0.000	0.000
0.260	-0.001	0.000
0.275	-0.001	0.000
0.290	-0.001	0.000
0.305	-0.001	0.000
0.320	-0.001	0.000
0.335	-0.001	0.000
0.350	-0.002	0.000
0.365	-0.002	0.000
0.380	-0.002	0.000
0.395	-0.003	0.000
0.410	-0.003	0.000
0.425	-0.003	0.000
0.440	-0.003	0.000
0.455	-0.004	0.000
0.470	-0.004	0.000
0.485	-0.004	0.000
0.500	-0.005	0.000
0.515	-0.005	0.000
0.530	-0.005	0.000
0.545	-0.006	0.000
0.560	-0.006	0.000
0.575	-0.006	0.000
0.590	-0.006	0.000
0.605	-0.007	0.000
0.620	-0.007	0.000
0.635	-0.007	0.000
0.650	-0.008	0.000
0.665	-0.008	0.000
0.680	-0.009	0.000
0.695	-0.009	0.000
0.710	-0.009	0.000
0.725	-0.010	0.000
0.740	-0.010	0.000
0.755	-0.011	0.000
0.770	-0.011	0.000
0.785	-0.012	0.000
0.800	-0.012	0.000
0.815	-0.013	0.000
0.830	-0.013	0.000
0.845	-0.013	0.000
0.860	-0.014	0.000
0.875	-0.014	0.000
0.890	-0.015	0.000
0.905	-0.015	0.000
0.920	-0.016	0.000
0.935	-0.016	0.000
0.950	-0.017	0.000
0.965	-0.017	0.000
0.980	-0.018	0.000
0.995	-0.019	0.000
1.010	-0.019	0.000
1.025	-0.020	0.000
1.040	-0.020	0.000
1.055	-0.021	0.000
1.070	-0.022	0.000
1.085	-0.022	0.000
1.100	-0.023	0.000
1.115	-0.023	0.000
1.130	-0.024	0.000
1.145	-0.025	0.000
1.160	-0.025	0.000
1.175	-0.026	0.000
1.190	-0.026	0.000
1.205	-0.027	0.000
1.220	-0.028	0.000
1.235	-0.028	0.000
1.250	-0.029	0.000
1.265	-0.030	0.000
1.280	-0.030	0.000
1.294	-0.031	0.000
1.309	-0.032	0.000
1.324	-0.033	0.000
1.339	-0.033	0.000
1.354	-0.034	0.000
1.369	-0.035	0.000
1.384	-0.036	0.000
1.399	-0.036	0.000
1.414	-0.037	0.000
1.429	-0.038	0.000
1.444	-0.039	0.000
1.459	-0.039	0.000
1.474	-0.040	0.000
1.489	-0.041	0.000
1.504	-0.042	0.000
1.519	-0.042	0.000
1.534	-0.043	0.000
1.549	-0.044	0.000
1.564	-0.045	0.000
1.579	-0.046	0.000
1.594	-0.046	0.000
1.609	-0.047	0.000
1.624	-0.048	0.000
1.639	-0.049	0.000
1.654	-0.050	0.000
1.669	-0.051	0.000
1.684	-0.052	0.000
1.699	-0.053	0.000
1.714	-0.054	0.000
1.729	-0.055	0.000
1.744	-0.055	0.000
1.759	-0.056	0.000
1.774	-0.057	0.000
1.789	-0.058	0.000
1.804	-0.059	0.000
1.819	-0.060	0.000
1.834	-0.061	0.000
1.849	-0.062	0.000
1.864	-0.063	0.000
1.879	-0.064	0.000
1.894	-0.065	0.000
1.908	-0.066	0.000
1.923	-0.067	0.000
1.938	-0.068	0.000
1.953	-0.069	0.000
1.968	-0.070	0.000
1.983	-0.071	0.000
1.998	-0.072	0.000
2.013	-0.073	0.000
2.028	-0.074	0.000
2.043	-0.075	0.000
2.058	-0.076	0.000
2.073	-0.077	0.000
2.088	-0.079	0.000
2.103	-0.080	0.000
2.118	-0.081	0.000
2.133	-0.082	0.000
2.148	-0.083	0.000
2.163	-0.084	0.000
2.178	-0.085	0.000
2.193	-0.086	0.000
2.208	-0.088	0.000
2.223	-0.089	0.000
2.238	-0.090	0.000
2.253	-0.091	0.000
2.268	-0.092	0.000
2.282	-0.093	0.000
2.297	-0.095	0.000
2.312	-0.096	0.000
2.327	-0.097	0.000
2.342	-0.098	0.000
2.357	-0.099	0.000
2.372	-0.101	0.000
2.387	-0.102	0.000
2.402	-0.103	0.000
2.417	-0.104	0.000
2.432	-0.105	0.000
2.447	-0.107	0.000
2.462	-0.108	0.000
2.477	-0.109	0.000
2.492	-0.111	0.000
2.507	-0.112	0.000
2.522	-0.113	0.000
2.537	-0.115	0.000
2.552	-0.116	0.000
2.566	-0.117	0.000
2.581	-0.119	0.000
2.596	-0.120	0.000
2.611	-0.121	0.000
2.626	-0.123	0.000
2.641	-0.124	0.000
2.656	-0.126	0.000
2.671	-0.127	0.000
2.686	-0.128	0.000
2.701	-0.130	0.000
2.716	-0.131	0.000
2.731	-0.132	0.000
2.746	-0.134	0.000
2.761	-0.135	0.000
2.776	-0.137	0.000
2.791	-0.138	0.000
2.805	-0.140	0.000
2.820	-0.141	0.000
2.835	-0.143	0.000
2.850	-0.144	0.000
2.865	-0.146	0.000
2.880	-0.147	0.000
2.895	-0.149	0.000
2.910	-0.150	0.000
2.925	-0.152	0.000
2.940	-0.153	0.000
2.955	-0.155	0.000
2.970	-0.156	0.000
2.985	-0.157	0.000
2.999	-0.159	0.000
3.014	-0.160	0.000
3.029	-0.162	0.000
3.044	-0.163	0.000
3.059	-0.165	0.000
3.074	-0.167	0.000
3.089	-0.168	0.000
3.104	-0.170	0.000
3.119	-0.172	0.000
3.134	-0.173	0.000
3.149	-0.175	0.000
3.164	-0.177	0.000
3.178	-0.178	0.000
3.193	-0.180	0.000
3.208	-0.182	0.000
3.223	-0.183	0.000
3.238	-0.185	0.000
3.253	-0.186	0.000
3.268	-0.188	0.000
3.283	-0.190	0.000
3.298	-0.191	0.000
3.313	-0.193	0.000
3.328	-0.195	0.000
3.342	-0.196	0.000
3.357	-0.198	0.000
3.372	-0.200	0.000
3.387	-0.202	0.000
3.402	-0.204	0.000
3.417	-0.205	0.000
3.432	-0.207	0.000
3.447	-0.209	0.000
3.462	-0.211	0.000
3.476	-0.213	0.000
3.491	-0.214	0.000
3.506	-0.216	0.000
3.521	-0.218	0.000
3.536	-0.220	0.000
3.551	-0.222	0.000
3.566	-0.223	0.000
3.581	-0.225	0.000
3.596	-0.227	0.000
3.610	-0.229	0.000
3.625	-0.231	0.000
3.640	-0.232	0.000
3.655	-0.234	0.000
3.670	-0.236	0.000
3.685	-0.238	0.000
3.700	-0.240	0.000
3.715	-0.242	0.000
3.730	-0.244	0.000
3.744	-0.246	0.000
3.759	-0.248	0.000
3.774	-0.250	0.000
3.789	-0.252	0.000
3.804	-0.254	0.000
3.819	-0.256	0.000
3.834	-0.257	0.000
3.849	-0.259	0.000
3.863	-0.261	0.000
3.878	-0.263	0.000
3.893	-0.265	0.000
3.908	-0.267	0.000
3.923	-0.269	0.000
3.938	-0.271	0.000
3.953	-0.273	0.000
3.967	-0.275	0.000
3.982	-0.277	0.000
3.997	-0.279	0.000
4.012	-0.281	0.000
4.027	-0.284	0.000
4.042	-0.286	0.000
4.057	-0.288	0.000
4.071	-0.290	0.000
4.086	-0.292	0.000
4.101	-0.294	0.000
4.116	-0.296	0.000
4.131	-0.298	0.000
4.146	-0.300	0.000
4.161	-0.302	0.000
4.175	-0.304	0.000
4.190	-0.307	0.000
4.205	-0.309	0.000
4.220	-0.311	0.000
4.235	-0.313	0.000
4.250	-0.315	0.000
4.264	-0.317	0.000
4.279	-0.320	0.000
4.294	-0.322	0.000
4.309	-0.324	0.000
4.324	-0.326	0.000
4.339	-0.329	0.000
4.353	-0.331	0.000
4.368	-0.333	0.000
4.383	-0.335	0.000
4.398	-0.337	0.000
4.413	-0.340	0.000
4.428	-0.342	0.000
4.442	-0.344	0.000
4.457	-0.346	0.000
4.472	-0.349	0.000
4.487	-0.351	0.000
4.502	-0.353	0.000
4.517	-0.355	0.000
4.531	-0.358	0.000
4.546	-0.360	0.000
4.561	-0.362	0.000
4.576	-0.365	0.000
4.591	-0.367	0.000
4.606	-0.369	0.000
4.620	-0.372	0.000
4.635	-0.374	0.000
4.650	-0.377	0.000
4.665	-0.379	0.000
4.680	-0.381	0.000
4.694	-0.384	0.000
4.709	-0.386	0.000
4.724	-0.388	0.000
4.739	-0.391	0.000
4.754	-0.393	0.000
4.768	-0.396	0.000
4.783	-0.398	0.000
4.798	-0.400	0.000
4.813	-0.403	0.000
4.828	-0.405	0.000
4.842	-0.408	0.000
4.857	-0.410	0.000
4.872	-0.413	0.000
4.887	-0.415	0.000
4.902	-0.418	0.000
4.916	-0.420	0.000
4.931	-0.423	0.000
4.946	-0.425	0.000
4.961	-0.428	0.000
4.976	-0.430	0.000
4.990	-0.433	0.000
5.005	-0.435	0.000
5.020	-0.438	0.000
5.035	-0.440	0.000
5.049	-0.443	0.000
5.064	-0.446	0.000
5.079	-0.448	0.000
5.094	-0.451	0.000
5.109	-0.453	0.000
5.123	-0.456	0.000
5.138	-0.458	0.000
5.153	-0.461	0.000
5.168	-0.464	0.000
5.182	-0.466	0.000
5.197	-0.469	0.000
5.212	-0.472	0.000
5.227	-0.474	0.000
5.241	-0.477	0.000
5.256	-0.480	0.000
5.271	-0.482	0.000
5.286	-0.485	0.000
5.301	-0.488	0.000
5.315	-0.490	0.000
5.330	-0.493	0.000
5.345	-0.496	0.000
5.360	-0.498	0.000
5.374	-0.501	0.000
5.389	-0.504	0.000
5.404	-0.506	0.000
5.419	-0.509	0.000
5.433	-0.512	0.000
5.448	-0.515	0.000
5.463	-0.517	0.000
5.478	-0.520	0.000
5.492	-0.523	0.000
5.507	-0.526	0.000
5.522	-0.529	0.000
5.536	-0.532	0.000
5.551	-0.534	0.000
5.566	-0.537	0.000
5.581	-0.540	0.000
5.595	-0.543	0.000
5.610	-0.546	0.000
5.625	-0.548	0.000
5.640	-0.551	0.000
5.654	-0.554	0.000
5.669	-0.557	0.000
5.684	-0.560	0.000
5.699	-0.563	0.000
5.713	-0.565	0.000
5.728	-0.568	0.000
5.743	-0.571	0.000
5.757	-0.574	0.000
5.772	-0.577	0.000
5.787	-0.580	0.000
5.802	-0.583	0.000
5.816	-0.586	0.000
5.831	-0.589	0.000
5.846	-0.592	0.000
5.860	-0.595	0.000
5.875	-0.598	0.000
5.890	-0.601	0.000
5.904	-0.604	0.000
5.919	-0.607	0.000
5.934	-0.610	0.000
5.949	-0.613	0.000
5.963	-0.616	0.000
5.978	-0.619	0.000
5.993	-0.622	0.000
6.007	-0.625	0.000
6.022	-0.628	0.000
6.037	-0.631	0.000
6.051	-0.634	0.000
6.066	-0.637	0.000
6.081	-0.640	0.000
6.095	-0.643	0.000
6.110	-0.646	0.000
6.125	-0.649	0.000
6.139	-0.653	0.000
6.154	-0.656	0.000
6.169	-0.659	0.000
6.183	-0.662	0.000
6.198	-0.665	0.000
6.213	-0.668	0.000
6.227	-0.671	0.000
6.242	-0.674	0.000
6.257	-0.677	0.000
6.272	-0.681	0.000
6.286	-0.684	0.000
6.301	-0.687	0.000
6.316	-0.690	0.000
6.330	-0.693	0.000
6.345	-0.696	0.000
6.359	-0.700	0.000
6.374	-0.703	0.000
6.389	-0.706	0.000
6.403	-0.709	0.000
6.418	-0.713	0.000
6.433	-0.716	0.000
6.447	-0.719	0.000
6.462	-0.722	0.000
6.477	-0.726	0.000
6.491	-0.729	0.000
6.506	-0.732	0.000
6.521	-0.735	0.000
6.535	-0.739	0.000
6.550	-0.742	0.000
6.564	-0.745	0.000
6.579	-0.748	0.000
6.594	-0.752	0.000
6.608	-0.755	0.000
6.623	-0.758	0.000
6.638	-0.762	0.000
6.652	-0.765	0.000
6.667	-0.769	0.000
6.681	-0.772	0.000
6.696	-0.775	0.000
6.711	-0.779	0.000
6.725	-0.782	0.000
6.740	-0.786	0.000
6.754	-0.789	0.000
6.769	-0.792	0.000
6.784	-0.796	0.000
6.798	-0.799	0.000
6.813	-0.802	0.000
6.828	-0.806	0.000
6.842	-0.809	0.000
6.857	-0.813	0.000
6.871	-0.816	0.000
6.886	-0.819	0.000
6.901	-0.823	0.000
6.915	-0.826	0.000
6.930	-0.830	0.000
6.944	-0.834	0.000
6.959	-0.837	0.000
6.973	-0.841	0.000
6.988	-0.844	0.000
7.003	-0.848	0.000
7.017	-0.851	0.000
7.032	-0.855	0.000
7.046	-0.858	0.000
7.061	-0.862	0.000
7.076	-0.865	0.000
7.090	-0.869	0.000
7.105	-0.872	0.000
7.119	-0.876	0.000
7.134	-0.879	0.000
7.148	-0.883	0.000
7.163	-0.887	0.000
7.178	-0.890	0.000
7.192	-0.894	0.000
7.207	-0.897	0.000
7.221	-0.901	0.000
7.236	-0.905	0.000
7.250	-0.908	0.000
7.265	-0.912	0.000
7.279	-0.916	0.000
7.294	-0.919	0.000
7.308	-0.923	0.000
7.323	-0.927	0.000
7.338	-0.930	0.000
7.352	-0.934	0.000
7.367	-0.938	0.000
7.381	-0.941	0.000
7.396	-0.945	0.000
7.410	-0.949	0.000
7.425	-0.952	0.000
7.439	-0.956	0.000
7.454	-0.960	0.000
7.468	-0.964	0.000
7.483	-0.967	0.000
7.497	-0.971	0.000
7.512	-0.975	0.000
7.526	-0.979	0.000
7.541	-0.983	0.000
7.555	-0.986	0.000
7.570	-0.990	0.000
7.584	-0.994	0.000
7.599	-0.998	0.000
7.613	-1.002	0.000
7.628	-1.006	0.000
7.643	-1.009	0.000
7.657	-1.013	0.000
7.672	-1.017	0.000
7.686	-1.021	0.000
7.701	-1.025	0.000
7.715	-1.028	0.000
[...]
         <PointData>
           <DataArray type="Float32" Name="plantID" NumberOfComponents="1" format="ascii">
 1.100e+01 1.100e+01 1.100e+01 1.100e+01 1.100e+01 1.100e+01 1.100e+01 1.100e+01 1.100e+01 1.100e+01 1.100e+01 1.100e+01 1.100e+01 1.100e+01 1.100e+01 1.100e+01 1.100e+01 1.100e+01 1.100e+01 1.100e+01 1.100e+01 1.100e+01 1.100e+01 1.100e+01 1.100e+01 1.100e+01 1.100e+01 1.100e+01 1.100e+01 1.100e+01 1.100e+01 1.100e+01 1.100e+01 1.100e+01 1.100e+01 1.100e+01 1.100e+01 1.100e+01 1.100e+01 1.100e+01 1.100e+01 1.100e+01 1.100e+01 1.100e+01 1.100e+01 1.100e+01 1.100e+01 1.100e+01 1.100e+01 1.100e+01 1.100e+01 1.100e+01 1.100e+01 1.100e+01 1.100e+01 1.100e+01 1.100e+01 1.100e+01 1.100e+01 1.100e+01 1.100e+01 1.100e+01 1.100e+01 1.100e+01 1.100e+01 1.100e+01 1.100e+01 1.100e+01 1.100e+01 1.100e+01 1.100e+01 1.100e+01 1.100e+01 1.100e+01 1.100e+01 1.100e+01 1.100e+01 1.100e+01 1.100e+01 1.100e+01 1.100e+01 1.100e+01 1.100e+01 1.100e+01 1.100e+01 1.100e+01 1.100e+01 1.100e+01 1.100e+01 1.100e+01 1.100e+01 1.100e+01 1.100e+01 1.100e+01 1.100e+01 1.100e+01 1.100e+01 1.100e+01 1.100e+01 1.100e+01 1.100e+01 1.100e+01 1.100e+01 1.100e+01 1.100e+01 1.100e+01 1.100e+01 1.100e+01 1.100e+01 1.100e+01 1.100e+01 1.100e+01 1.100e+01 1.100e+01 1.100e+01 1.100e+01 1.100e+01 1.100e+01 1.100e+01 1.100e+01 1.100e+01 1.100e+01 1.100e+01 1.100e+01 1.100e+01 1.100e+01 1.100e+01 1.100e+01 1.100e+01 1.100e+01 1.100e+01 1.100e+01 1.100e+01 1.100e+01 1.100e+01 1.100e+01 1.100e+01 1.100e+01 1.100e+01 1.100e+01 1.100e+01 1.100e+01 1.100e+01 1.100e+01 1.100e+01 1.100e+01 1.100e+01 1.100e+01 1.100e+01 1.100e+01 1.100e+01 1.100e+01 1.100e+01 1.100e+01 1.100e+01 1.100e+01 1.100e+01 1.100e+01 1.100e+01 1.100e+01 1.100e+01 1.100e+01 1.100e+01 1.100e+01 1.100e+01 1.100e+01 1.100e+01 1.100e+01 1.100e+01 1.100e+01 1.100e+01 1.100e+01 1.100e+01 1.100e+01 1.100e+01 1.100e+01 1.100e+01 1.100e+01 1.100e+01 1.100e+01 1.100e+01 1.100e+01 1.100e+01 1.100e+01 1.100e+01 1.100e+01 1.100e+01 1.100e+01 1.100e+01 1.100e+01 1.100e+01 1.100e+01 1.100e+01 1.100e+01 1.100e+01 1.100e+01 1.100e+01 1.100e+01 1.100e+01 1.100e+01 1.100e+01 1.100e+01 1.100e+01 1.100e+01 1.100e+01 1.100e+01 1.100e+01 1.100e+01 1.100e+01 1.100e+01 1.100e+01 1.100e+01 1.100e+01 1.100e+01 1.100e+01 1.100e+01 1.100e+01 1.100e+01 1.100e+01 1.100e+01 1.100e+01 1.100e+01 1.100e+01 1.100e+01 1.100e+01 1.100e+01 1.100e+01 1.100e+01 1.100e+01 1.100e+01 1.100e+01 1.100e+01 1.100e+01 1.100e+01 1.100e+01 1.100e+01 1.100e+01 1.100e+01 1.100e+01 1.100e+01 1.100e+01 1.100e+01 1.100e+01 1.100e+01 1.100e+01 1.100e+01 1.100e+01 1.100e+01 1.100e+01 1.100e+01 1.100e+01 1.100e+01 1.100e+01 1.100e+01 1.100e+01 1.100e+01 1.100e+01 1.100e+01 1.100e+01 1.100e+01 1.100e+01 1.100e+01 1.100e+01 1.100e+01 1.100e+01 1.100e+01 1.100e+01 1.100e+01 1.100e+01 1.100e+01 1.100e+01 1.100e+01 1.100e+01 1.100e+01 1.100e+01 1.100e+01 1.100e+01 1.100e+01 1.100e+01 1.100e+01 1.100e+01 1.100e+01 1.100e+01 1.100e+01 1.100e+01 1.100e+01 1.100e+01 1.100e+01 1.100e+01 1.100e+01 1.100e+01 1.100e+01 1.100e+01 1.100e+01 1.100e+01 1.100e+01 1.100e+01 1.100e+01 1.100e+01 1.100e+01 1.100e+01 1.100e+01 1.100e+01 1.100e+01 1.100e+01 1.100e+01 1.100e+01 1.100e+01 1.100e+01 1.100e+01 1.100e+01 1.100e+01 1.100e+01 1.100e+01 1.100e+01 1.100e+01 1.100e+01 1.100e+01 1.100e+01 1.100e+01 1.100e+01 1.100e+01 1.100e+01 1.100e+01 1.100e+01 1.100e+01 1.100e+01 1.100e+01 1.100e+01 1.100e+01 1.100e+01 1.100e+01 1.100e+01 1.100e+01 1.100e+01 1.100e+01 1.100e+01 1.100e+01 1.100e+01 1.100e+01 1.100e+01 1.100e+01 1.100e+01 1.100e+01 1.100e+01 1.100e+01 1.100e+01 1.100e+01 1.100e+01 1.100e+01 1.100e+01 1.100e+01 1.100e+01 1.100e+01 1.100e+01 1.100e+01 1.100e+01 1.100e+01 1.100e+01 1.100e+01 1.100e+01 1.100e+01 1.100e+01 1.100e+01 1.100e+01 1.100e+01 1.100e+01 1.100e+01 1.100e+01 1.100e+01 1.100e+01 1.100e+01 1.100e+01 1.100e+01 1.100e+01 1.100e+01 1.100e+01 1.100e+01 1.100e+01 1.100e+01 1.100e+01 1.100e+01 1.100e+01 1.100e+01 1.100e+01 1.100e+01 1.100e+01 1.100e+01 1.100e+01 1.100e+01 1.100e+01 1.100e+01 1.100e+01 1.100e+01 1.100e+01 1.100e+01 1.100e+01 1.100e+01 1.100e+01 1.100e+01 1.100e+01 1.100e+01 1.100e+01 1.100e+01 1.100e+01 1.100e+01 1.100e+01 1.100e+01 1.100e+01 1.100e+01 1.100e+01 1.100e+01 1.100e+01 1.100e+01 1.100e+01 1.100e+01 1.100e+01 1.100e+01 1.100e+01 1.100e+01 1.100e+01 1.100e+01 1.100e+01 1.100e+01 1.100e+01 1.100e+01 1.100e+01 1.100e+01 1.100e+01 1.100e+01 1.100e+01 1.100e+01 1.100e+01 1.100e+01 1.100e+01 1.100e+01 1.100e+01 1.100e+01 1.100e+01 1.100e+01 1.100e+01 1.100e+01 1.100e+01 1.100e+01 1.100e+01 1.100e+01 1.100e+01 1.100e+01 1.100e+01 1.100e+01 1.100e+01 1.100e+01 1.100e+01 1.100e+01 1.100e+01 1.100e+01 1.100e+01 1.100e+01 1.100e+01 1.100e+01 1.100e+01 1.100e+01 1.100e+01 1.100e+01 1.100e+01 1.100e+01 1.100e+01 1.100e+01 1.100e+01 1.100e+01 1.100e+01 1.100e+01 1.100e+01 1.100e+01 1.100e+01 1.100e+01 1.100e+01 1.100e+01 1.100e+01 1.100e+01 1.100e+01 1.100e+01 1.100e+01 1.100e+01 1.100e+01 1.100e+01 1.100e+01 1.100e+01 1.100e+01 1.100e+01 1.100e+01 1.100e+01 1.100e+01 1.100e+01 1.100e+01 1.100e+01 1.100e+01 1.100e+01 1.100e+01 1.100e+01 1.100e+01 1.100e+01 1.100e+01 1.100e+01 1.100e+01 1.100e+01 1.100e+01 1.100e+01 1.100e+01 1.100e+01 1.100e+01 1.100e+01 1.100e+01 1.100e+01 1.100e+01 1.100e+01 1.100e+01 1.100e+01 1.100e+01 1.100e+01 1.100e+01 1.100e+01 1.100e+01 1.100e+01 1.100e+01 1.100e+01 1.100e+01 1.100e+01 1.100e+01 1.100e+01 1.100e+01 1.100e+01 1.100e+01 1.100e+01 1.100e+01 1.100e+01 1.100e+01 1.100e+01 1.100e+01 1.100e+01 1.100e+01 1.100e+01 1.100e+01 1.100e+01 1.100e+01 1.100e+01 1.100e+01 1.100e+01 1.100e+01 1.100e+01 1.100e+01 1.100e+01 1.100e+01 1.100e+01 1.100e+01 1.100e+01 1.100e+01 1.100e+01 1.100e+01 1.100e+01 1.100e+01 1.100e+01 1.100e+01 1.100e+01 1.100e+01 1.100e+01 1.100e+01 1.100e+01 1.100e+01 1.100e+01 1.100e+01 1.100e+01 1.100e+01 1.100e+01 1.100e+01 1.100e+01 1.100e+01 1.100e+01 1.100e+01 1.100e+01 1.100e+01 1.100e+01 1.100e+01 1.100e+01 1.100e+01 1.100e+01 1.100e+01 1.100e+01 1.100e+01 1.100e+01 1.100e+01 1.100e+01 1.100e+01 1.100e+01 1.100e+01 1.100e+01 1.100e+01 1.100e+01 1.100e+01 1.100e+01 1.100e+01 1.100e+01 1.100e+01 1.100e+01 1.100e+01 1.100e+01 1.100e+01 1.100e+01 1.100e+01 1.100e+01 1.100e+01 1.100e+01 1.100e+01 1.100e+01 1.100e+01 1.100e+01 1.100e+01 1.100e+01 1.100e+01 1.100e+01 1.100e+01 1.100e+01 1.100e+01 1.100e+01 1.100e+01 1.100e+01 1.100e+01 1.100e+01 1.100e+01 1.100e+01 1.100e+01 1.100e+01 1.100e+01 1.100e+01 1.100e+01 1.100e+01 1.100e+01 1.100e+01 1.100e+01 1.100e+01 1.100e+01 1.100e+01 1.100e+01 1.100e+01 1.100e+01 1.100e+01 1.100e+01 1.100e+01 1.100e+01 1.100e+01 1.100e+01 1.100e+01 1.100e+01 1.100e+01 1.100e+01 1.100e+01 1.100e+01 1.100e+01 1.100e+01 1.100e+01 1.100e+01 1.100e+01 1.100e+01 1.100e+01 1.100e+01 1.100e+01 1.100e+01 1.100e+01 1.100e+01 1.100e+01 1.100e+01 1.100e+01 1.100e+01 1.100e+01 1.100e+01 1.100e+01 1.100e+01 1.100e+01 1.100e+01 1.100e+01 1.100e+01 1.100e+01 1.100e+01 1.100e+01 1.100e+01 1.100e+01 1.100e+01 1.100e+01 1.100e+01 1.100e+01 1.100e+01 1.100e+01 1.100e+01 1.100e+01 1.100e+01 1.100e+01 1.100e+01 1.100e+01 1.100e+01 1.100e+01 1.100e+01 1.100e+01 1.100e+01 1.100e+01 1.100e+01 1.100e+01 1.100e+01 1.100e+01 1.100e+01 1.100e+01 1.100e+01 1.100e+01 1.100e+01 1.100e+01 1.100e+01 1.100e+01 1.100e+01 1.100e+01 1.100e+01 1.100e+01 1.100e+01 1.100e+01 1.100e+01 1.100e+01 1.100e+01 1.100e+01 1.100e+01 1.100e+01 1.100e+01 1.100e+01 1.100e+01 1.100e+01 1.100e+01 1.100e+01 1.100e+01 1.100e+01 1.100e+01 1.100e+01 1.100e+01 1.100e+01 1.100e+01 1.100e+01 1.100e+01 1.100e+01 1.100e+01 1.100e+01 1.100e+01 1.100e+01 1.100e+01 1.100e+01 1.100e+01 1.100e+01 1.100e+01 1.100e+01 1.100e+01 1.100e+01 1.100e+01 1.100e+01 1.100e+01 1.100e+01 1.100e+01 1.100e+01 1.100e+01 1.100e+01 1.100e+01 1.100e+01 1.100e+01 1.100e+01 1.100e+01 1.100e+01 1.100e+01 1.100e+01 1.100e+01 1.100e+01 1.100e+01 1.100e+01 1.100e+01 1.100e+01 1.100e+01 1.100e+01 1.100e+01 1.100e+01 1.100e+01 1.100e+01 1.100e+01 1.100e+01 1.100e+01 1.100e+01 1.100e+01 1.100e+01 1.100e+01 1.100e+01 1.100e+01 1.100e+01 1.100e+01 1.100e+01 1.100e+01 1.100e+01 1.100e+01 1.100e+01 1.100e+01 1.100e+01 1.100e+01 1.100e+01 1.100e+01 1.100e+01 1.100e+01 1.100e+01 1.100e+01 1.100e+01 1.100e+01 1.100e+01 1.100e+01 1.100e+01 1.100e+01 1.100e+01 1.100e+01 1.100e+01 1.100e+01 1.100e+01 1.100e+01 1.100e+01 1.100e+01 1.100e+01 1.100e+01 1.100e+01 1.100e+01 1.100e+01 1.100e+01 1.100e+01 1.100e+01 1.100e+01 1.100e+01 1.100e+01 1.100e+01 1.100e+01 1.100e+01 1.100e+01 1.100e+01 1.100e+01 1.100e+01 1.100e+01 1.100e+01 1.100e+01 1.100e+01 1.100e+01 1.100e+01 1.100e+01 1.100e+01 1.100e+01 1.100e+01 1.100e+01 1.100e+01 1.100e+01 1.100e+01 1.100e+01 1.100e+01 1.100e+01 1.100e+01 1.100e+01 1.100e+01 1.100e+01 1.100e+01 1.100e+01 1.100e+01 1.100e+01 1.100e+01 1.100e+01 1.100e+01 1.100e+01 1.100e+01 1.100e+01 1.100e+01 1.100e+01 1.100e+01 1.100e+01 1.100e+01 1.100e+01 1.100e+01 1.100e+01 1.100e+01 1.100e+01 1.100e+01 1.100e+01 1.100e+01 1.100e+01 1.100e+01 1.100e+01 1.100e+01 1.100e+01 1.100e+01 1.100e+01 1.100e+01 1.100e+01 1.100e+01 1.100e+01 1.100e+01 1.100e+01 1.100e+01 1.100e+01 1.100e+01 1.100e+01 1.100e+01 1.100e+01 1.100e+01 1.100e+01 1.100e+01 1.100e+01 1.100e+01 1.100e+01 1.100e+01 1.100e+01 1.100e+01 1.100e+01 1.100e+01 1.100e+01 1.100e+01 1.100e+01 1.100e+01 1.100e+01 1.100e+01 1.100e+01 1.100e+01 1.100e+01 1.100e+01 1.100e+01 1.100e+01 1.100e+01 1.100e+01 1.100e+01 1.100e+01 1.100e+01 1.100e+01 1.100e+01 1.100e+01 1.100e+01 1.100e+01 1.100e+01 1.100e+01 1.100e+01 1.100e+01 1.100e+01 1.100e+01 1.100e+01 1.100e+01 1.100e+01 1.100e+01 1.100e+01 1.100e+01 1.100e+01 1.100e+01 1.100e+01 1.100e+01 1.100e+01 1.100e+01 1.100e+01 1.100e+01 1.100e+01 1.100e+01 1.100e+01 1.100e+01 1.100e+01 1.100e+01 1.100e+01 1.100e+01 1.100e+01 1.100e+01 1.100e+01 1.100e+01 1.100e+01 1.100e+01 1.100e+01 1.100e+01 1.100e+01 1.100e+01 1.100e+01 1.100e+01 1.100e+01 1.100e+01 1.100e+01 1.100e+01 1.100e+01 1.100e+01 1.100e+01 1.100e+01 1.100e+01 1.100e+01 1.100e+01 1.100e+01 1.100e+01 1.100e+01 1.100e+01 1.100e+01 1.100e+01 1.100e+01 1.100e+01 1.100e+01 1.100e+01 1.100e+01 1.100e+01 1.100e+01 1.100e+01 1.100e+01 1.100e+01 1.100e+01 1.100e+01 1.100e+01 1.100e+01 1.100e+01 1.100e+01 1.100e+01 1.100e+01 1.100e+01 1.100e+01 1.100e+01 1.100e+01 1.100e+01 1.100e+01 1.100e+01 1.100e+01 1.100e+01 1.100e+01 1.100e+01 1.100e+01 1.100e+01 1.100e+01 1.100e+01 1.100e+01 1.100e+01 1.100e+01 1.100e+01 1.100e+01 1.100e+01 1.100e+01 1.100e+01 1.100e+01 1.100e+01 1.100e+01 1.100e+01 1.100e+01 1.100e+01 1.100e+01 1.100e+01 1.100e+01 1.100e+01 1.100e+01 1.100e+01 1.100e+01 1.100e+01 1.100e+01 1.100e+01 1.100e+01 1.100e+01 1.100e+01 1.100e+01 1.100e+01 1.100e+01 1.100e+01 1.100e+01 1.100e+01 1.100e+01 1.100e+01 1.100e+01 1.100e+01 1.100e+01 1.100e+01 1.100e+01 1.100e+01 1.100e+01 1.100e+01 1.100e+01 1.100e+01 1.100e+01 1.100e+01 1.100e+01 1.100e+01 1.100e+01 1.100e+01 1.100e+01 1.100e+01 1.100e+01 1.100e+01 1.100e+01 1.100e+01 1.100e+01 1.100e+01 1.100e+01 1.100e+01 1.100e+01 1.100e+01 1.100e+01 1.100e+01 1.100e+01 1.100e+01 1.100e+01 1.100e+01 1.100e+01 1.100e+01 1.100e+01 1.100e+01 1.100e+01 1.100e+01 1.100e+01 1.100e+01 1.100e+01 1.100e+01 1.100e+01 1.100e+01 1.100e+01 1.100e+01 1.100e+01 1.100e+01 1.100e+01 1.100e+01 1.100e+01 1.100e+01 1.100e+01 1.100e+01 1.100e+01 1.100e+01 1.100e+01 1.100e+01 1.100e+01 1.100e+01 1.100e+01 1.100e+01 1.100e+01 1.100e+01 1.100e+01 1.100e+01 1.100e+01 1.100e+01 1.100e+01 1.100e+01 1.100e+01 1.100e+01 1.100e+01 1.100e+01 1.100e+01 1.100e+01 1.100e+01 1.100e+01 1.100e+01 1.100e+01 1.100e+01 1.100e+01 1.100e+01 1.100e+01 1.100e+01 1.100e+01 1.100e+01 1.100e+01 1.100e+01 1.100e+01 1.100e+01 1.100e+01 1.100e+01 1.100e+01 1.100e+01 1.100e+01 1.100e+01 1.100e+01 1.100e+01 1.100e+01 1.100e+01 1.100e+01 1.100e+01 1.100e+01 1.100e+01 1.100e+01 1.100e+01 1.100e+01 1.100e+01 1.100e+01 1.100e+01 1.100e+01 1.100e+01 1.100e+01 1.100e+01 1.100e+01 1.100e+01 1.100e+01 1.100e+01 1.100e+01 1.100e+01 1.100e+01 1.100e+01 1.100e+01 1.100e+01 1.100e+01 1.100e+01 1.100e+01 1.100e+01 1.100e+01 1.100e+01 1.100e+01 1.100e+01 1.100e+01 1.100e+01 1.100e+01 1.100e+01 1.100e+01 1.100e+01 1.100e+01 1.100e+01 1.100e+01 1.100e+01 1.100e+01 1.100e+01 1.100e+01 1.100e+01 1.100e+01 1.100e+01 1.100e+01 1.100e+01 1.100e+01 1.100e+01 1.100e+01 1.100e+01 1.100e+01 1.100e+01 1.100e+01 1.100e+01 1.100e+01 1.100e+01 1.100e+01 1.100e+01 1.100e+01 1.100e+01 1.100e+01 1.100e+01 1.100e+01 1.100e+01 1.100e+01 1.100e+01 1.100e+01 1.100e+01 1.100e+01 1.100e+01 1.100e+01 1.100e+01 1.100e+01 1.100e+01 1.100e+01 1.100e+01 1.100e+01 1.100e+01 1.100e+01 1.100e+01 1.100e+01 1.100e+01 1.100e+01 1.100e+01 1.100e+01 1.100e+01 1.100e+01 1.100e+01 1.100e+01 1.100e+01 1.100e+01 1.100e+01 1.100e+01 1.100e+01 1.100e+01 1.100e+01 1.100e+01 1.100e+01 1.100e+01 1.100e+01 1.100e+01 1.100e+01 1.100e+01 1.100e+01 1.100e+01 1.100e+01 1.100e+01 1.100e+01 1.100e+01 1.100e+01 1.100e+01 1.100e+01 1.100e+01 1.100e+01 1.100e+01 1.100e+01 1.100e+01 1.100e+01 1.100e+01 1.100e+01 1.100e+01 1.100e+01 1.100e+01 1.100e+01 1.100e+01 1.100e+01 1.100e+01 1.100e+01 1.100e+01 1.100e+01 1.100e+01 1.100e+01 1.100e+01 1.100e+01 1.100e+01 1.100e+01 1.100e+01 1.100e+01 1.100e+01 1.100e+01 1.100e+01 1.100e+01 1.100e+01 1.100e+01 1.100e+01 1.100e+01 1.100e+01 1.100e+01 1.100e+01 1.100e+01 1.100e+01 1.100e+01 1.100e+01 1.100e+01 1.100e+01 1.100e+01 1.100e+01 1.100e+01 1.100e+01 1.100e+01 1.100e+01 1.100e+01 1.100e+01 1.100e+01 1.100e+01 1.100e+01 1.100e+01 1.100e+01 1.100e+01 1.100e+01 1.100e+01 1.100e+01 1.100e+01 1.100e+01 1.100e+01 1.100e+01 1.100e+01 1.100e+01 1.100e+01 1.100e+01 1.100e+01 1.100e+01 1.100e+01 1.100e+01 1.100e+01 1.100e+01 1.100e+01 1.100e+01 1.100e+01 1.100e+01 1.100e+01 1.100e+01 1.100e+01 1.100e+01 1.100e+01 1.100e+01 1.100e+01 1.100e+01 1.100e+01 1.100e+01 1.100e+01 1.100e+01 1.100e+01 1.100e+01 1.100e+01 1.100e+01 1.100e+01 1.100e+01 1.100e+01 1.100e+01 1.100e+01 1.100e+01 1.100e+01 1.100e+01 1.100e+01 1.100e+01 1.100e+01 1.100e+01 1.100e+01 1.100e+01 1.100e+01 1.100e+01 1.100e+01 1.100e+01 1.100e+01 1.100e+01 1.100e+01 1.100e+01 1.100e+01 1.100e+01 1.100e+01 1.100e+01 1.100e+01 1.100e+01 1.100e+01 1.100e+01 1.100e+01 1.100e+01 1.100e+01 1.100e+01 1.100e+01 1.100e+01 1.100e+01 1.100e+01 1.100e+01 1.100e+01 1.100e+01 1.100e+01 1.100e+01 1.100e+01 1.100e+01 1.100e+01 1.100e+01 1.100e+01 1.100e+01 1.100e+01 1.100e+01 1.100e+01 1.100e+01 1.100e+01 1.100e+01 1.100e+01 1.100e+01 1.100e+01 1.100e+01 1.100e+01 1.100e+01 1.100e+01 1.100e+01 1.100e+01 1.100e+01 1.100e+01 1.100e+01 1.100e+01 1.100e+01 1.100e+01 1.100e+01 1.100e+01 1.100e+01 1.100e+01 1.100e+01 1.100e+01 1.100e+01 1.100e+01 1.100e+01 1.100e+01 1.100e+01 1.100e+01 1.100e+01 1.100e+01 1.100e+01 1.100e+01 1.100e+01 1.100e+01 1.100e+01 1.100e+01 1.100e+01 1.100e+01 1.100e+01 1.100e+01 1.100e+01 1.100e+01 1.100e+01 1.100e+01 1.100e+01 1.100e+01 1.100e+01 1.100e+01 1.100e+01 1.100e+01 1.100e+01 1.100e+01 1.100e+01 1.100e+01 1.100e+01 1.100e+01 1.100e+01 1.100e+01 1.100e+01 1.100e+01 1.100e+01 1.100e+01 1.100e+01 1.100e+01 1.100e+01 1.100e+01 1.100e+01 1.100e+01 1.100e+01 1.100e+01 1.100e+01 1.100e+01 1.100e+01 1.100e+01 1.100e+01 1.100e+01 1.100e+01 1.100e+01 1.100e+01 1.100e+01 1.100e+01 1.100e+01 1.100e+01 1.100e+01 1.100e+01 1.100e+01 1.100e+01 1.100e+01 1.100e+01 1.100e+01 1.100e+01 1.100e+01 1.100e+01 1.100e+01 1.100e+01 1.100e+01 1.100e+01 1.100e+01 1.100e+01 1.100e+01 1.100e+01 1.100e+01 1.100e+01 1.100e+01 1.100e+01 1.100e+01 1.100e+01 1.100e+01 1.100e+01 1.100e+01 1.100e+01 1.100e+01 1.100e+01 1.100e+01 1.100e+01 1.100e+01 1.100e+01 1.100e+01 1.100e+01 1.100e+01 1.100e+01 1.100e+01 1.100e+01 1.100e+01 1.100e+01 1.100e+01 1.100e+01 1.100e+01 1.100e+01 1.100e+01 1.100e+01 1.100e+01 1.100e+01 1.100e+01 1.100e+01 1.100e+01 1.100e+01 1.100e+01 1.100e+01 1.100e+01 1.100e+01 1.100e+01 1.100e+01 1.100e+01 1.100e+01 1.100e+01 1.100e+01 1.100e+01 1.100e+01 1.100e+01 1.100e+01 1.100e+01 1.100e+01 1.100e+01 1.100e+01 1.100e+01 1.100e+01 1.100e+01 1.100e+01 1.100e+01 1.100e+01 1.100e+01 1.100e+01 1.100e+01 1.100e+01 1.100e+01 1.100e+01 1.100e+01 1.100e+01 1.100e+01 1.100e+01 1.100e+01 1.100e+01 1.100e+01 1.100e+01 1.100e+01 1.100e+01 1.100e+01 1.100e+01 1.100e+01 1.100e+01 1.100e+01 1.100e+01 1.100e+01 1.100e+01 1.100e+01 1.100e+01 1.100e+01 1.100e+01 1.100e+01 1.100e+01 1.100e+01 1.100e+01 1.100e+01 1.100e+01 1.100e+01 1.100e+01 1.100e+01 1.100e+01 1.100e+01 1.100e+01 1.100e+01 1.100e+01 1.100e+01 1.100e+01 1.100e+01 1.100e+01 1.100e+01 1.100e+01 1.100e+01 1.100e+01 1.100e+01 1.100e+01 1.100e+01 1.100e+01 1.100e+01 1.100e+01 1.100e+01 1.100e+01 1.100e+01 1.100e+01 1.100e+01 1.100e+01 1.100e+01 1.100e+01 1.100e+01 1.100e+01 1.100e+01 1.100e+01 1.100e+01 1.100e+01 1.100e+01 1.100e+01 1.100e+01 1.100e+01 1.100e+01 1.100e+01 1.100e+01 1.100e+01 1.100e+01 1.100e+01 1.100e+01 1.100e+01 1.100e+01 1.100e+01 1.100e+01 1.100e+01 1.100e+01 1.100e+01 1.100e+01 1.100e+01 1.100e+01 1.100e+01 1.100e+01 1.100e+01 1.100e+01 1.100e+01 1.100e+01 1.100e+01 1.100e+01 1.100e+01 1.100e+01 1.100e+01 1.100e+01 1.100e+01 1.100e+01 1.100e+01 1.100e+01 1.100e+01 1.100e+01 1.100e+01 1.100e+01 1.100e+01 1.100e+01 1.100e+01 1.100e+01 1.100e+01 1.100e+01 1.100e+01 1.100e+01 1.100e+01 1.100e+01 1.100e+01 1.100e+01 1.100e+01 1.100e+01 1.100e+01 1.100e+01 1.100e+01 1.100e+01 1.100e+01 1.100e+01 1.100e+01 1.100e+01 1.100e+01 1.100e+01 1.100e+01 1.100e+01 1.100e+01 1.100e+01 1.100e+01 1.100e+01 1.100e+01 1.100e+01 1.100e+01 1.100e+01 1.100e+01 1.100e+01 1.100e+01 1.100e+01 1.100e+01 1.100e+01 1.100e+01 1.100e+01 1.100e+01 1.100e+01 1.100e+01 1.100e+01 1.100e+01 1.100e+01 1.100e+01 1.100e+01 1.100e+01 1.100e+01 1.100e+01 1.100e+01 1.100e+01 1.100e+01 1.100e+01 1.100e+01 1.100e+01 1.100e+01 1.100e+01 1.100e+01 1.100e+01 1.100e+01 1.100e+01 1.100e+01 1.100e+01 1.100e+01 1.100e+01 1.100e+01 1.100e+01 1.100e+01 1.100e+01 1.100e+01 1.100e+01 1.100e+01 1.100e+01 1.100e+01 1.100e+01 1.100e+01 1.100e+01 1.100e+01 1.100e+01 1.100e+01 1.100e+01 1.100e+01 1.100e+01 1.100e+01 1.100e+01 1.100e+01 1.100e+01 1.100e+01 1.100e+01 1.100e+01 1.100e+01 1.100e+01 1.100e+01 1.100e+01 1.100e+01 1.100e+01 1.100e+01 1.100e+01 1.100e+01 1.100e+01 1.100e+01 1.100e+01 1.100e+01 1.100e+01 1.100e+01 1.100e+01 1.100e+01 1.100e+01 1.100e+01 1.100e+01 1.100e+01 1.100e+01 1.100e+01 1.100e+01 1.100e+01 1.100e+01 1.100e+01 1.100e+01 1.100e+01 1.100e+01 1.100e+01 1.100e+01 1.100e+01 1.100e+01 1.100e+01 1.100e+01 1.100e+01 1.100e+01 1.100e+01 1.100e+01 1.100e+01 1.100e+01 1.100e+01 1.100e+01 1.100e+01 1.100e+01 1.100e+01 1.100e+01 1.100e+01 1.100e+01 1.100e+01 1.100e+01 1.100e+01 1.100e+01 1.100e+01 1.100e+01 1.100e+01 1.100e+01 1.100e+01 1.100e+01 1.100e+01 1.100e+01 1.100e+01 1.100e+01 1.100e+01 1.100e+01 1.100e+01 1.100e+01 1.100e+01 1.100e+01 1.100e+01 1.100e+01 1.100e+01 1.100e+01 1.100e+01 1.100e+01 1.100e+01 1.100e+01 1.100e+01 1.100e+01 1.100e+01 1.100e+01 1.100e+01 1.100e+01 1.100e+01 1.100e+01 1.100e+01 1.100e+01 1.100e+01 1.100e+01 1.100e+01 1.100e+01 1.100e+01 1.100e+01 1.100e+01 1.100e+01 1.100e+01 1.100e+01 1.100e+01 1.100e+01 1.100e+01 1.100e+01 1.100e+01 1.100e+01 1.100e+01 1.100e+01 1.100e+01 1.100e+01 1.100e+01 1.100e+01 1.100e+01 1.100e+01 1.100e+01 1.100e+01 1.100e+01 1.100e+01 1.100e+01 1.100e+01 1.100e+01 1.100e+01 1.100e+01 1.100e+01 1.100e+01 1.100e+01 1.100e+01 1.100e+01 1.100e+01 1.100e+01 1.100e+01 1.100e+01 1.100e+01 1.100e+01 1.100e+01 1.100e+01 1.100e+01 1.100e+01 1.100e+01 1.100e+01 1.100e+01 1.100e+01 1.100e+01 1.100e+01 1.100e+01 1.100e+01 1.100e+01 1.100e+01 1.100e+01 1.100e+01 1.100e+01 1.100e+01 1.100e+01 1.100e+01 1.100e+01 1.100e+01 1.100e+01 1.100e+01 1.100e+01 1.100e+01 1.100e+01 1.100e+01 1.100e+01 1.100e+01 1.100e+01 1.100e+01 1.100e+01 1.100e+01 1.100e+01 1.100e+01 1.100e+01 1.100e+01 1.100e+01 1.100e+01 1.100e+01 1.100e+01 1.100e+01 1.100e+01 1.100e+01 1.100e+01 1.100e+01 1.100e+01 1.100e+01 1.100e+01 1.100e+01 1.100e+01 1.100e+01 1.100e+01 1.100e+01 1.100e+01 1.100e+01 1.100e+01 1.100e+01 1.100e+01 1.100e+01 1.100e+