<?xml version="1.0"?>
<VTKFile type="PolyData" version="0.1" byte_order="LittleEndian">
   <PolyData>
 <Piece NumberOfPoints="20" NumberOfLines="1" NumberOfVerts="0" NumberOfStrips="0" NumberOfPolys="0">
    <Points>
       <DataArray type="Float32" Name="Position" NumberOfComponents="3" format="ascii">
0.000	0.000	0.000
-0.050	-0.897	-0.051
-0.099	-1.794	-0.102
-0.144	-2.592	-0.147
-0.193	-3.489	-0.198
-0.243	-4.386	-0.248
-0.293	-5.283	-0.299
-0.326	-5.882	-0.333
-0.375	-6.779	-0.384
-0.409	-7.377	-0.418
-0.464	-8.374	-0.474
-0.508	-9.171	-0.519
-0.552	-9.969	-0.565
-0.596	-10.766	-0.610
-0.640	-11.564	-0.655
-0.679	-12.262	-0.695
-0.712	-12.860	-0.728
-0.762	-13.757	-0.779
-0.811	-14.654	-0.830
-0.828	-14.953	-0.847
		    </DataArray>
         </Points>
         <Lines>
            <DataArray type="Int32" Name="connectivity" NumberOfComponents="1" format="ascii">
 0 1 2 3 4 5 6 7 8 9 10 11 12 13 14 15 16 17 18 19
            </DataArray>
            <DataArray type="Int32" Name="offsets" NumberOfComponents="1" format="ascii">
 20
            </DataArray>
            <DataArray type="UInt8"  Name="types" NumberOfComponents="1" format="ascii">
6
            </DataArray>
         </Lines>
         <PointData>
           <DataArray type="Float32" Name="plantID" NumberOfComponents="1" format="ascii">
 1.100e+01 1.100e+01 1.100e+01 1.100e+01 1.100e+01 1.100e+01 1.100e+01 1.100e+01 1.100e+01 1.100e+01 1.100e+01 1.100e+01 1.100e+01 1.100e+01 1.100e+01 1.100e+01 1.100e+01 1.100e+01 1.100e+01 1.100e+01
           </DataArray>
           <DataArray type="Float32" Name="plantTypeID" NumberOfComponents="1" format="ascii">
 0.000e+00 0.000e+00 0.000e+00 0.000e+00 0.000e+00 0.000e+00 0.000e+00 0.000e+00 0.000e+00 0.000e+00 0.000e+00 0.000e+00 0.000e+00 0.000e+00 0.000e+00 0.000e+00 0.000e+00 0.000e+00 0.000e+00 0.000e+00
           </DataArray>
           <DataArray type="Float32" Name="rootCircumference" NumberOfComponents="1" format="ascii">
 3.142e+00 3.142e+00 3.142e+00 3.142e+00 3.142e+00 3.142e+00 3.037e+00 2.827e+00 2.513e+00 2.304e+00 1.990e+00 1.780e+00 1.571e+00 1.361e+00 1.152e+00 9.425e-01 7.330e-01 4.189e-01 1.047e-01 0.000e+00
           </DataArray>
           <DataArray type="Float32" Name="rootRadius" NumberOfComponents="1" format="ascii">
 5.000e-01 5.000e-01 5.000e-01 5.000e-01 5.000e-01 5.000e-01 4.833e-01 4.500e-01 4.000e-01 3.667e-01 3.167e-01 2.833e-01 2.500e-01 2.167e-01 1.833e-01 1.500e-01 1.167e-01 6.667e-02 1.667e-02 0.000e+00
           </DataArray>
           <DataArray type="Float32" Name="rootSegmentAge" NumberOfComponents="1" format="ascii">
 1.000e+01 9.100e+00 8.200e+00 7.400e+00 6.500e+00 5.600e+00 2.900e+00 2.700e+00 2.400e+00 2.200e+00 1.900e+00 1.700e+00 1.500e+00 1.300e+00 1.100e+00 9.000e-01 7.000e-01 4.000e-01 1.000e-01 0.000e+00
           </DataArray>
           <DataArray type="Float32" Name="rootSegmentLength" NumberOfComponents="1" format="ascii">
 9.000e-01 9.000e-01 8.000e-01 9.000e-01 9.000e-01 9.000e-01 6.000e-01 9.000e-01 6.000e-01 1.000e+00 8.000e-01 8.000e-01 8.000e-01 8.000e-01 7.000e-01 6.000e-01 9.000e-01 9.000e-01 3.000e-01 0.000e+00
           </DataArray>
           <DataArray type="Float32" Name="rootSegmentSurfaceArea" NumberOfComponents="1" format="ascii">
 2.827e+00 2.827e+00 2.513e+00 2.827e+00 2.827e+00 2.781e+00 1.762e+00 2.407e+00 1.447e+00 2.149e+00 1.509e+00 1.342e+00 1.174e+00 1.006e+00 7.339e-01 5.034e-01 5.192e-01 2.360e-01 1.573e-02 0.000e+00
           </DataArray>
           <DataArray type="Float32" Name="rootSegmentVolume" NumberOfComponents="1" format="ascii">
 7.069e-01 7.069e-01 6.283e-01 7.069e-01 7.069e-01 6.836e-01 4.107e-01 5.113e-01 2.772e-01 3.674e-01 2.264e-01 1.790e-01 1.371e-01 1.008e-01 6.129e-02 3.368e-02 2.435e-02 5.498e-03 8.727e-05 0.000e+00
           </DataArray>
           <DataArray type="Float32" Name="lineSegmentLength" NumberOfComponents="1" format="ascii">
 9.000e-01 9.000e-01 8.000e-01 9.000e-01 9.000e-01 9.000e-01 6.000e-01 9.000e-01 6.000e-01 1.000e+00 8.000e-01 8.000e-01 8.000e-01 8.000e-01 7.000e-01 6.000e-01 9.000e-01 9.000e-01 3.000e-01 0
           </DataArray>
           <DataArray type="Float32" Name="nextxyz" NumberOfComponents="3" format="ascii">
-0.050	-0.897	-0.051
-0.099	-1.794	-0.102
-0.144	-2.592	-0.147
-0.193	-3.489	-0.198
-0.243	-4.386	-0.248
-0.293	-5.283	-0.299
-0.326	-5.882	-0.333
-0.375	-6.779	-0.384
-0.409	-7.377	-0.418
-0.464	-8.374	-0.474
-0.508	-9.171	-0.519
-0.552	-9.969	-0.565
-0.596	-10.766	-0.610
-0.640	-11.564	-0.655
-0.679	-12.262	-0.695
-0.712	-12.860	-0.728
-0.762	-13.757	-0.779
-0.811	-14.654	-0.830
-0.828	-14.953	-0.847
-0.828	-14.953	-0.847

           </DataArray>
           <DataArray type="Float32" Name="growthvector" NumberOfComponents="3" format="ascii">
-0.050	-0.897	-0.051
-0.050	-0.897	-0.051
-0.044	-0.798	-0.045
-0.050	-0.897	-0.051
-0.050	-0.897	-0.051
-0.050	-0.897	-0.051
-0.033	-0.598	-0.034
-0.050	-0.897	-0.051
-0.033	-0.598	-0.034
-0.055	-0.997	-0.056
-0.044	-0.798	-0.045
-0.044	-0.798	-0.045
-0.044	-0.798	-0.045
-0.044	-0.798	-0.045
-0.039	-0.698	-0.040
-0.033	-0.598	-0.034
-0.050	-0.897	-0.051
-0.050	-0.897	-0.051
-0.017	-0.299	-0.017
0.000	0.000	0.000

           </DataArray>
           <DataArray type="Float32" Name="next" NumberOfComponents="1" format="ascii">
 1 2 3 4 5 6 7 8 9 10 11 12 13 14 15 16 17 18 19 -1
           </DataArray>
           <DataArray type="Float32" Name="previous" NumberOfComponents="1" format="ascii">
 -1 0 1 2 3 4 5 6 7 8 9 10 11 12 13 14 15 16 17 18
           </DataArray>
         </PointData>
      </Piece>
   </PolyData>
</VTKFile>
